[Molden Format]
[Title]
                                                                                
[Atoms] AU
 cl    1   17 0.62395690776829E+00 -.17363163796800E-01 0.41438632111718E+01
 o     2    8 0.26032558608683E+01 0.15113583709767E+01 -.14697971328818E+01
 o     3    8 -.95331372198510E-01 -.31278836525519E+01 -.87554184875353E+00
 o     4    8 -.23691643490796E+01 0.22329257921554E+01 -.71988111603629E+00
 h     5    1 0.22729115296049E+01 -.17993252201526E+00 -.21081432593941E+01
 h     6    1 -.73658981878509E+00 0.26335948819905E+01 -.14965446386671E+01
 h     7    1 0.22828451265819E+00 -.26541868800356E+01 0.92235605387823E+00
 h     8    1 -.17020915209014E+01 0.17599315753588E+01 0.97049000309423E+00
 h     9    1 -.12700763643356E+01 -.17811141880031E+01 -.13579663635571E+01
 h    10    1 0.23710974056944E+01 0.11831878037083E+01 0.34823489685673E+00
[GTO]
    1 0
 s    5 1.00
 0.10449827566000E+05 0.54265953789407E-02
 0.15717365221000E+04 0.40626378128836E-01
 0.35712065523000E+03 0.18359747852877E+00
 0.10025185935000E+03 0.47438948768198E+00
 0.30812727554000E+02 0.43735181104122E+00
 s    3 1.00
 0.51923789434000E+02 -.92754154848099E-01
 0.57045760975000E+01 0.56380825544207E+00
 0.23508376809000E+01 0.50367044629712E+00
 s    1 1.00
 0.44605124672000E+00 0.10000000000000E+01
 s    1 1.00
 0.16848856190000E+00 0.10000000000000E+01
 p    5 1.00
 0.30766790569000E+03 -.88797025588865E-02
 0.72102015515000E+02 -.64284071721237E-01
 0.22532680262000E+02 -.24288739736006E+00
 0.78991765444000E+01 -.48340836369878E+00
 0.28767268321000E+01 -.38952563875509E+00
 p    1 1.00
 0.77459363955000E+00 0.10000000000000E+01
 p    1 1.00
 0.21037699698000E+00 0.10000000000000E+01
 d    1 1.00
 0.65000000000000E+00 0.10000000000000E+01
 
    2 0
 s    5 1.00
 0.22661767785000E+04 -.53893503921743E-02
 0.34087010191000E+03 -.40234721388960E-01
 0.77363135167000E+02 -.18008184205526E+00
 0.21479644940000E+02 -.46828857657651E+00
 0.66589433124000E+01 -.44692617160187E+00
 s    1 1.00
 0.80975975668000E+00 0.10000000000000E+01
 s    1 1.00
 0.25530772234000E+00 0.10000000000000E+01
 p    3 1.00
 0.17721504317000E+02 0.62630248763161E-01
 0.38635505440000E+01 0.33331138482352E+00
 0.10480920883000E+01 0.74148638308122E+00
 p    1 1.00
 0.27641544411000E+00 0.10000000000000E+01
 d    1 1.00
 0.12000000000000E+01 0.10000000000000E+01
 
    3 0
 s    5 1.00
 0.22661767785000E+04 -.53893503921743E-02
 0.34087010191000E+03 -.40234721388960E-01
 0.77363135167000E+02 -.18008184205526E+00
 0.21479644940000E+02 -.46828857657651E+00
 0.66589433124000E+01 -.44692617160187E+00
 s    1 1.00
 0.80975975668000E+00 0.10000000000000E+01
 s    1 1.00
 0.25530772234000E+00 0.10000000000000E+01
 p    3 1.00
 0.17721504317000E+02 0.62630248763161E-01
 0.38635505440000E+01 0.33331138482352E+00
 0.10480920883000E+01 0.74148638308122E+00
 p    1 1.00
 0.27641544411000E+00 0.10000000000000E+01
 d    1 1.00
 0.12000000000000E+01 0.10000000000000E+01
 
    4 0
 s    5 1.00
 0.22661767785000E+04 -.53893503921743E-02
 0.34087010191000E+03 -.40234721388960E-01
 0.77363135167000E+02 -.18008184205526E+00
 0.21479644940000E+02 -.46828857657651E+00
 0.66589433124000E+01 -.44692617160187E+00
 s    1 1.00
 0.80975975668000E+00 0.10000000000000E+01
 s    1 1.00
 0.25530772234000E+00 0.10000000000000E+01
 p    3 1.00
 0.17721504317000E+02 0.62630248763161E-01
 0.38635505440000E+01 0.33331138482352E+00
 0.10480920883000E+01 0.74148638308122E+00
 p    1 1.00
 0.27641544411000E+00 0.10000000000000E+01
 d    1 1.00
 0.12000000000000E+01 0.10000000000000E+01
 
    5 0
 s    3 1.00
 0.13010701000000E+02 0.33485484812989E-01
 0.19622572000000E+01 0.23472187088125E+00
 0.44453796000000E+00 0.81377028525955E+00
 s    1 1.00
 0.12194962000000E+00 0.10000000000000E+01
 p    1 1.00
 0.80000000000000E+00 0.10000000000000E+01
 
    6 0
 s    3 1.00
 0.13010701000000E+02 0.33485484812989E-01
 0.19622572000000E+01 0.23472187088125E+00
 0.44453796000000E+00 0.81377028525955E+00
 s    1 1.00
 0.12194962000000E+00 0.10000000000000E+01
 p    1 1.00
 0.80000000000000E+00 0.10000000000000E+01
 
    7 0
 s    3 1.00
 0.13010701000000E+02 0.33485484812989E-01
 0.19622572000000E+01 0.23472187088125E+00
 0.44453796000000E+00 0.81377028525955E+00
 s    1 1.00
 0.12194962000000E+00 0.10000000000000E+01
 p    1 1.00
 0.80000000000000E+00 0.10000000000000E+01
 
    8 0
 s    3 1.00
 0.13010701000000E+02 0.33485484812989E-01
 0.19622572000000E+01 0.23472187088125E+00
 0.44453796000000E+00 0.81377028525955E+00
 s    1 1.00
 0.12194962000000E+00 0.10000000000000E+01
 p    1 1.00
 0.80000000000000E+00 0.10000000000000E+01
 
    9 0
 s    3 1.00
 0.13010701000000E+02 0.33485484812989E-01
 0.19622572000000E+01 0.23472187088125E+00
 0.44453796000000E+00 0.81377028525955E+00
 s    1 1.00
 0.12194962000000E+00 0.10000000000000E+01
 p    1 1.00
 0.80000000000000E+00 0.10000000000000E+01
 
   10 0
 s    3 1.00
 0.13010701000000E+02 0.33485484812989E-01
 0.19622572000000E+01 0.23472187088125E+00
 0.44453796000000E+00 0.81377028525955E+00
 s    1 1.00
 0.12194962000000E+00 0.10000000000000E+01
 p    1 1.00
 0.80000000000000E+00 0.10000000000000E+01
 
[MO]
 Sym=     1a   
 Ene= -.10139422045157E+03
 Spin= Alpha
 Occup= 2.000000
     1 0.99401773563792E+00
     2 0.22357394545245E-01
     3 -.10127053393773E-01
     4 0.63302101740706E-02
     5 0.10216343660854E-04
     6 0.44813552989077E-06
     7 0.99290606438824E-04
     8 0.51517946045047E-04
     9 0.20193034328410E-05
    10 0.46164152822044E-03
    11 -.12577492664820E-03
    12 -.57353366518555E-05
    13 -.11063782799304E-02
    14 -.34469935913512E-04
    15 -.20567551575507E-04
    16 0.55037487489019E-04
    17 -.49214560914950E-05
    18 0.10701691250645E-04
    19 0.37502102900482E-06
    20 -.32330984662767E-04
    21 -.33534547175049E-03
    22 0.92129549186150E-03
    23 -.19268094588419E-04
    24 -.61368807860043E-06
    25 -.11032822803887E-03
    26 0.78458979523334E-06
    27 -.54223588150418E-04
    28 0.55036822749051E-03
    29 -.13105505423524E-04
    30 -.61466413720709E-05
    31 0.19252146795594E-04
    32 0.57061570069884E-05
    33 -.15686601961703E-04
    34 -.95052761325018E-05
    35 -.35719921574841E-04
    36 -.36165103630444E-03
    37 0.98319696883196E-03
    38 -.31108382047249E-04
    39 0.12292946408095E-04
    40 -.10553500743638E-03
    41 0.12404982706276E-03
    42 0.65261154608550E-04
    43 0.50065532361680E-03
    44 -.10918524341098E-04
    45 -.14183444627531E-06
    46 0.11060358787374E-04
    47 0.28727483439246E-05
    48 0.36426044659895E-05
    49 0.21933087085218E-04
    50 -.34914895159421E-04
    51 -.35530998249025E-03
    52 0.96403912012309E-03
    53 -.27172718040975E-05
    54 0.10920967494166E-04
    55 -.11098751465114E-03
    56 0.99241595436029E-04
    57 -.12025486727075E-03
    58 0.53123525717266E-03
    59 -.26431939553865E-06
    60 -.96233224986388E-05
    61 0.98876418941775E-05
    62 -.78593372955341E-05
    63 0.16991455802830E-04
    64 -.14909769037030E-04
    65 -.56140662406179E-04
    66 0.30217762509579E-03
    67 -.62716313340074E-06
    68 0.59258336498736E-05
    69 -.11771574795074E-05
    70 -.57838798387720E-04
    71 0.38484672953993E-03
    72 -.12958803218660E-04
    73 0.12247957336137E-05
    74 0.76227007644437E-05
    75 -.22078664700721E-03
    76 -.13177348442941E-02
    77 0.16943226307123E-04
    78 -.11590977324154E-03
    79 -.70228494798260E-04
    80 -.17576701680986E-03
    81 -.13539523609817E-02
    82 -.48652763643037E-04
    83 0.54149988776776E-04
    84 -.32620374068022E-04
    85 -.13017444667538E-04
    86 0.27960973448932E-03
    87 -.16534817767485E-05
    88 0.94772008741693E-05
    89 0.13977945479179E-04
    90 -.18663704935213E-03
    91 -.12515625565976E-02
    92 0.50128960427988E-04
    93 0.24357227113172E-04
    94 -.51865964480325E-04
 Sym=     2a   
 Ene= -.19039160948444E+02
 Spin= Alpha
 Occup= 2.000000
     1 -.18214330650743E-04
     2 0.16047475070904E-03
     3 -.10632876901386E-02
     4 0.17546116433549E-02
     5 -.48680482828041E-04
     6 -.29355789103352E-04
     7 0.72891381522463E-04
     8 -.26712957967392E-03
     9 -.16445843372571E-03
    10 0.41957544412053E-03
    11 0.64678272121241E-03
    12 0.41988121004538E-03
    13 -.11326397408743E-02
    14 -.34006882511845E-04
    15 -.54225547015978E-04
    16 0.88232429527823E-04
    17 0.25104900904035E-04
    18 -.88721151707508E-04
    19 -.60993631752687E-04
    20 0.98892252863127E+00
    21 -.39732027498238E-01
    22 0.17399882887794E-01
    23 0.80190991049201E-03
    24 0.22690224073737E-02
    25 -.12205646104775E-02
    26 -.96470631055584E-03
    27 -.20911215967121E-03
    28 0.93005757707420E-03
    29 0.54250148867660E-03
    30 -.23248650629336E-03
    31 -.31001498238324E-03
    32 -.14844548520432E-03
    33 0.18106966693261E-04
    34 -.21483733638276E-03
    35 0.11477202701597E-02
    36 -.34743823841440E-03
    37 0.60422100406398E-03
    38 -.16442551884652E-03
    39 -.35627936869965E-04
    40 0.56027703073033E-04
    41 0.52527141279990E-03
    42 0.32720515180888E-03
    43 -.26774477081769E-03
    44 0.97908239989170E-05
    45 0.12031103782446E-04
    46 -.21821927781363E-04
    47 0.15099706254512E-04
    48 -.13856342282994E-05
    49 -.22647173098411E-04
    50 0.10727715608197E-02
    51 -.64261800279748E-03
    52 0.14856717225672E-02
    53 -.10319997002915E-03
    54 -.14639701949160E-03
    55 0.10698322837871E-03
    56 0.40642849921469E-03
    57 0.21906387679755E-03
    58 -.25378316556142E-03
    59 0.28652797355383E-04
    60 -.47969163933315E-05
    61 -.23855880962052E-04
    62 -.48725721050198E-04
    63 0.21254273471473E-04
    64 0.40831460834916E-04
    65 0.17509030777295E-02
    66 -.26193599693107E-02
    67 0.67984866842734E-03
    68 0.26721957084294E-02
    69 0.88205387722049E-03
    70 -.30748592129540E-03
    71 -.18541240641365E-02
    72 -.66481915882956E-03
    73 0.31912371345546E-03
    74 -.63840995887165E-04
    75 -.10599513980841E-04
    76 0.13286005680510E-03
    77 -.19840962846385E-06
    78 0.10569718866450E-04
    79 -.86053496573053E-04
    80 0.13281219491527E-03
    81 0.10026269279888E-03
    82 0.80115894583814E-04
    83 0.19762388172439E-04
    84 -.66614243372391E-04
    85 -.49326152477437E-04
    86 0.41175072714354E-03
    87 -.29529946605648E-04
    88 0.84006976217339E-04
    89 0.25166064418447E-04
    90 0.13653852965171E-02
    91 -.41869214270810E-02
    92 0.49003201226078E-03
    93 0.50607394637324E-03
    94 -.24224782167978E-02
 Sym=     3a   
 Ene= -.19026013299974E+02
 Spin= Alpha
 Occup= 2.000000
     1 -.20130439008044E-04
     2 0.17905764062746E-03
     3 -.12366490506008E-02
     4 0.21497021618603E-02
     5 0.66998013430739E-05
     6 0.68779609705840E-04
     7 0.66636344550214E-04
     8 0.41184150040362E-04
     9 0.38600458567124E-03
    10 0.39800007299664E-03
    11 -.12533935949913E-03
    12 -.99708928980541E-03
    13 -.11793348796581E-02
    14 -.76479583009222E-04
    15 0.83430609145568E-05
    16 0.68136522094666E-04
    17 0.18710587228488E-04
    18 0.19904441004581E-04
    19 0.12939154703376E-03
    20 -.12172135024098E-02
    21 -.34837138492851E-03
    22 0.11376441168028E-02
    23 -.71676694168133E-04
    24 0.62982730656110E-04
    25 0.52412618596724E-04
    26 0.30457130873888E-04
    27 -.46845599205471E-03
    28 -.41932038266288E-04
    29 0.92471921758154E-06
    30 0.30297463879215E-04
    31 -.31222183096796E-04
    32 0.42614300056583E-04
    33 0.85780059170985E-05
    34 -.17169499577583E-04
    35 0.98895899530881E+00
    36 -.39439667496259E-01
    37 0.17201410470011E-01
    38 0.94761572956369E-03
    39 -.21971428312645E-02
    40 -.12967487373308E-02
    41 0.74149042026311E-04
    42 0.85948363456382E-03
    43 0.84959714193903E-03
    44 0.15484156770685E-03
    45 0.54178563656737E-04
    46 -.20902013136358E-03
    47 0.41767575646408E-03
    48 -.33525241857270E-03
    49 0.10774528567822E-04
    50 0.23118865554078E-02
    51 -.58582849306908E-03
    52 0.11269458818692E-02
    53 0.51298168427361E-05
    54 0.24918033413991E-03
    55 0.48240254267069E-04
    56 0.29997011931848E-03
    57 -.90741758402448E-03
    58 0.72824374346127E-04
    59 0.87408605496536E-06
    60 -.84273984504031E-05
    61 0.75533123954378E-05
    62 -.23152511174427E-04
    63 0.52233147097699E-05
    64 -.18373020233003E-04
    65 -.11934600291588E-03
    66 -.98683201250167E-03
    67 0.18790928567031E-03
    68 0.14306758860981E-03
    69 -.21321491184401E-03
    70 -.35002769847044E-03
    71 0.60196779780320E-03
    72 0.27178173815439E-04
    73 0.49214117595460E-04
    74 -.13133199483649E-04
    75 0.13818535401592E-02
    76 -.44239145301246E-02
    77 -.40006770101838E-03
    78 -.87560927391009E-03
    79 -.23191747107149E-02
    80 -.38182076173083E-03
    81 -.31187863667411E-04
    82 0.14425763839043E-04
    83 -.26201626561375E-04
    84 0.82685537301306E-04
    85 0.17691190608692E-02
    86 -.29809491148344E-02
    87 0.17068471462454E-02
    88 -.21493574912962E-02
    89 0.63624496964095E-03
    90 0.10541501228622E-03
    91 -.26137890361451E-03
    92 -.26713762761975E-04
    93 -.88104075423292E-04
    94 -.88623220861935E-05
 Sym=     4a   
 Ene= -.19015309752451E+02
 Spin= Alpha
 Occup= 2.000000
     1 -.19752591403992E-04
     2 0.17412344112318E-03
     3 -.11514453994241E-02
     4 0.18939402218991E-02
     5 0.60509902297230E-04
     6 -.43385337484686E-04
     7 0.64161546282379E-04
     8 0.33777506824182E-03
     9 -.24117204078361E-03
    10 0.37183746064477E-03
    11 -.85210340926645E-03
    12 0.60116666980188E-03
    13 -.10126214340681E-02
    14 -.14177581123614E-04
    15 -.32442530459469E-04
    16 0.46620111583084E-04
    17 -.55379612725379E-04
    18 0.10610888166258E-03
    19 -.72837558703181E-04
    20 -.11887660391865E-02
    21 -.48873672269858E-03
    22 0.10051602246539E-02
    23 0.18645456559829E-03
    24 -.17837681504129E-03
    25 0.60364497183879E-04
    26 -.92236346071292E-03
    27 0.74505106764932E-03
    28 -.51325398171063E-04
    29 0.52873443683660E-04
    30 -.42724099952643E-04
    31 -.10149343731016E-04
    32 -.34137249945177E-04
    33 0.12514259484791E-06
    34 0.62042362363863E-06
    35 -.24108005786391E-02
    36 -.43366640666116E-03
    37 0.14678667200053E-02
    38 0.91084942594976E-04
    39 -.30309926765553E-04
    40 0.16638111359842E-04
    41 -.49657249469355E-03
    42 0.49380042671842E-03
    43 -.20912111442845E-04
    44 -.17566593424308E-04
    45 0.37538036408689E-04
    46 -.19971442984382E-04
    47 -.48017220482018E-04
    48 0.26444738836552E-05
    49 0.36430692402806E-05
    50 0.98897869680549E+00
    51 -.39345554099051E-01
    52 0.17544942522460E-01
    53 -.25253576031489E-02
    54 0.93207388851185E-04
    55 -.96094185901984E-03
    56 0.10724418986928E-02
    57 -.34476053362414E-03
    58 0.64497395184229E-03
    59 -.18105121613321E-03
    60 0.41662346125865E-03
    61 -.23557224512544E-03
    62 -.12967368793451E-03
    63 0.91557721234932E-04
    64 0.27255061975739E-03
    65 0.83256906893750E-04
    66 0.54863271718856E-03
    67 0.45483684521047E-04
    68 0.36142412624377E-04
    69 0.85994425328157E-04
    70 0.13658779792135E-02
    71 -.35213422457688E-02
    72 -.25490912624532E-02
    73 -.36716046773704E-03
    74 0.89579929871020E-03
    75 -.12577657923442E-03
    76 -.28166165941821E-04
    77 -.10002773811950E-04
    78 0.11179518805792E-04
    79 -.19353350228521E-04
    80 0.13115150780567E-02
    81 -.41615469416668E-02
    82 -.97915012944078E-03
    83 0.64777052096529E-03
    84 -.21274683217487E-02
    85 -.14417311335760E-03
    86 -.13064907533236E-02
    87 -.97676580154648E-04
    88 -.28323227722856E-04
    89 -.12826514003438E-03
    90 -.31969444555867E-04
    91 0.23164760445669E-03
    92 -.81006610122569E-05
    93 -.47874459193036E-04
    94 -.19065923877501E-04
 Sym=     5a   
 Ene= -.92431825519185E+01
 Spin= Alpha
 Occup= 2.000000
     1 -.31185922472656E+00
     2 0.10220583666164E+01
     3 0.48087920743345E-01
     4 -.19183719470409E-01
     5 0.32398528592853E-04
     6 0.13158034415852E-04
     7 0.12359087211831E-02
     8 -.12479447839249E-03
     9 -.86308377220719E-05
    10 -.11973845496683E-02
    11 0.30849808257561E-03
    12 0.16232928582425E-04
    13 0.27051359039137E-02
    14 0.62385983097854E-04
    15 0.40037070105316E-04
    16 -.10242305320317E-03
    17 0.91932214147204E-05
    18 -.23345434255822E-04
    19 -.92792295147721E-06
    20 0.70367629266327E-04
    21 0.72709382362841E-03
    22 -.20814656138847E-02
    23 0.44305475841123E-04
    24 0.13380298882055E-05
    25 0.23811821756417E-03
    26 -.22518921015338E-04
    27 0.10009800180660E-03
    28 -.12339950385441E-02
    29 0.19450000203537E-04
    30 0.99103966386518E-05
    31 -.29360396842189E-04
    32 -.91728811337061E-05
    33 0.28408324859039E-04
    34 0.14569972279438E-04
    35 0.75550392627011E-04
    36 0.76907742756486E-03
    37 -.22290070120351E-02
    38 0.67374057987009E-04
    39 -.35919497583952E-04
    40 0.21582662146799E-03
    41 -.30708260182339E-03
    42 -.93872350120262E-04
    43 -.11337111034916E-02
    44 0.17054978814925E-04
    45 0.11079230016776E-05
    46 -.18162901816602E-04
    47 -.84337912271549E-05
    48 -.54812339891980E-05
    49 -.37650422464727E-04
    50 0.76228301953373E-04
    51 0.77315742676868E-03
    52 -.22024164754547E-02
    53 0.13714426876679E-05
    54 -.21322436267632E-04
    55 0.23811803505570E-03
    56 -.19071350734888E-03
    57 0.26183110206656E-03
    58 -.12038784662414E-02
    59 0.89360962056798E-06
    60 0.13506145284395E-04
    61 -.14399754904963E-04
    62 0.13573482104303E-04
    63 -.27794456545357E-04
    64 0.25407022076402E-04
    65 0.10329933520933E-03
    66 -.74569373649780E-03
    67 0.10498669077421E-04
    68 -.57572729636830E-05
    69 -.12989393916789E-04
    70 0.10174620400748E-03
    71 -.94297183977333E-03
    72 0.13657368060561E-04
    73 0.63603300647949E-05
    74 -.28863247298220E-04
    75 0.51784518259603E-03
    76 0.32579657589484E-02
    77 -.30906015071761E-04
    78 0.25831554578390E-03
    79 0.17548305578232E-03
    80 0.40872510959565E-03
    81 0.33240101764712E-02
    82 0.12627185245398E-03
    83 -.13392916136473E-03
    84 0.11327170637864E-03
    85 -.84793180548548E-05
    86 -.71357192691654E-03
    87 -.26082883761851E-05
    88 -.27893581207198E-04
    89 -.41988442966315E-04
    90 0.43203104899975E-03
    91 0.30509581768845E-02
    92 -.12068493338146E-03
    93 -.63910979169490E-04
    94 0.16845071265549E-03
 Sym=     6a   
 Ene= -.69792062483066E+01
 Spin= Alpha
 Occup= 2.000000
     1 0.50010974195071E-03
     2 -.19230545403358E-02
     3 0.22049796861827E-02
     4 -.33307715893916E-02
     5 0.96920157998768E-02
     6 -.28288515882872E-01
     7 0.98080665975418E+00
     8 -.53849739458111E-03
     9 0.14297563355860E-02
    10 -.49992868283755E-01
    11 0.18860093213850E-03
    12 -.23540636213150E-03
    13 0.87997381197602E-02
    14 0.27825371354935E-04
    15 0.10917297573850E-04
    16 -.38742668928785E-04
    17 0.27203109758667E-05
    18 -.26084243236489E-05
    19 0.60195752038621E-05
    20 0.63164467814658E-04
    21 0.62274319491250E-03
    22 -.15985354593807E-02
    23 0.44339838194019E-04
    24 0.24036471140979E-05
    25 0.22791645993510E-03
    26 -.26431537596954E-04
    27 0.34711515109077E-04
    28 -.84597149823748E-03
    29 -.59103264895302E-05
    30 -.62190392978920E-05
    31 0.12129365787422E-04
    32 -.61735733025209E-05
    33 0.29963922119683E-04
    34 0.76448942360725E-05
    35 0.54060475169121E-04
    36 0.51690790720003E-03
    37 -.12982941712240E-02
    38 0.45880454886525E-04
    39 -.31413120289983E-04
    40 0.17894376827061E-03
    41 -.14136182856934E-03
    42 -.25491855170047E-04
    43 -.51703439860393E-03
    44 -.10457328093398E-04
    45 -.24072017176570E-04
    46 0.34529345269967E-04
    47 -.92700466338944E-05
    48 0.10156172945751E-04
    49 -.22209133337971E-04
    50 0.56393683522971E-04
    51 0.54171298785779E-03
    52 -.13269198074690E-02
    53 0.12712864008460E-04
    54 -.21363423964387E-04
    55 0.19428582894924E-03
    56 -.11250348833519E-03
    57 0.17015996096962E-03
    58 -.63628753524805E-03
    59 -.14930241344362E-04
    60 -.11968262589459E-04
    61 0.26898503933821E-04
    62 0.11044352173987E-04
    63 -.65381611382342E-05
    64 0.10514944551981E-04
    65 0.31487746918367E-04
    66 -.53974191090491E-03
    67 0.24342002988747E-04
    68 0.25047233791138E-05
    69 -.22408776248929E-04
    70 0.30174566797140E-04
    71 -.55532366334590E-03
    72 -.10515076390056E-04
    73 0.86433256843422E-05
    74 -.37864837192195E-04
    75 0.37722939371871E-03
    76 0.18913179450353E-02
    77 0.29758527534416E-04
    78 0.43576878822585E-03
    79 0.36474371578460E-03
    80 0.33341712588348E-03
    81 0.19742792151710E-02
    82 0.27658548531149E-03
    83 -.24242152245073E-03
    84 0.25556627014038E-03
    85 -.86198869633359E-04
    86 -.22837970256776E-03
    87 0.48712718253477E-05
    88 -.41872237566243E-04
    89 -.38879165088484E-04
    90 0.36563741527814E-03
    91 0.24381045701064E-02
    92 -.26060651682636E-03
    93 -.15716737773519E-03
    94 0.35158533288754E-03
 Sym=     7a   
 Ene= -.69784345396530E+01
 Spin= Alpha
 Occup= 2.000000
     1 0.16464640968393E-04
     2 -.60498448547095E-04
     3 0.43847059741433E-04
     4 -.80847923053461E-04
     5 -.18004598500701E+00
     6 0.96426742575780E+00
     7 0.29588221130965E-01
     8 0.90846682943384E-02
     9 -.48635961553305E-01
    10 -.14970433888883E-02
    11 -.14365722923999E-02
    12 0.76797235290129E-02
    13 0.25100525187321E-03
    14 0.32673836679425E-04
    15 -.31721132688505E-04
    16 -.95270399091990E-06
    17 -.26866915767579E-04
    18 0.97516704586689E-05
    19 -.72507721769314E-04
    20 -.15426566858793E-04
    21 -.16786063225339E-03
    22 0.56928260768665E-03
    23 -.18648118668196E-04
    24 -.79952947385187E-05
    25 -.38590099079911E-04
    26 0.28059953345625E-04
    27 -.41386580503640E-05
    28 0.26307568436877E-03
    29 -.29319562931232E-05
    30 -.37131271233374E-05
    31 0.66450834164605E-05
    32 0.49397033070984E-06
    33 -.10321253047108E-04
    34 0.41699005848702E-05
    35 0.58968916679861E-04
    36 0.58602960131016E-03
    37 -.17431807369365E-02
    38 0.43302046262441E-04
    39 -.51308747517983E-04
    40 0.15009822971791E-03
    41 -.21507232884385E-03
    42 0.79319008541586E-04
    43 -.76779354245614E-03
    44 0.24975534001580E-05
    45 0.37514167009044E-05
    46 -.62489701010625E-05
    47 -.38583982663886E-05
    48 0.22916213780058E-05
    49 -.16056525035057E-04
    50 -.44424285259155E-04
    51 -.44591967198271E-03
    52 0.12915241597322E-02
    53 0.13366435319917E-04
    54 0.20598730445570E-04
    55 -.12279202882647E-03
    56 0.51709839138547E-04
    57 -.13896495109847E-03
    58 0.63047737823768E-03
    59 0.38346648576598E-07
    60 -.90468944505495E-05
    61 0.90085478019729E-05
    62 -.62719190311275E-06
    63 0.14641166591012E-04
    64 -.11697488688179E-05
    65 -.35717280791678E-04
    66 -.60107269715061E-04
    67 0.10112652519271E-05
    68 0.16805366571260E-04
    69 -.55353420050514E-04
    70 -.42643999390885E-04
    71 0.51917825357644E-03
    72 -.10620756508072E-05
    73 -.12223615616449E-04
    74 0.83026181223366E-05
    75 0.18153446859684E-03
    76 0.27255109539276E-02
    77 0.21366581843284E-04
    78 0.15562364042729E-03
    79 0.11907805640874E-03
    80 -.13799741768357E-03
    81 -.20241142873565E-02
    82 -.94941836832606E-04
    83 0.11508033331322E-04
    84 -.50766940097110E-04
    85 0.19964529219098E-04
    86 -.32038105659405E-03
    87 -.17745222402424E-04
    88 0.29917427868272E-04
    89 0.45901032709250E-04
    90 -.54172215030081E-04
    91 -.78861617351158E-03
    92 0.39114970823323E-04
    93 -.32572674849488E-04
    94 -.86814620898994E-05
 Sym=     8a   
 Ene= -.69781182978999E+01
 Spin= Alpha
 Occup= 2.000000
     1 0.20403561562178E-04
     2 -.92958484704600E-04
     3 0.23089229353817E-03
     4 -.35504022642266E-03
     5 0.96470045539490E+00
     6 0.18026188544318E+00
     7 -.43510622763948E-02
     8 -.48539767605098E-01
     9 -.90635465406823E-02
    10 0.17539933620454E-03
    11 0.74574231704651E-02
    12 0.13769187209297E-02
    13 0.61870098066803E-04
    14 0.29270814543078E-06
    15 -.14954155217359E-04
    16 0.14661447071928E-04
    17 0.38734281702937E-04
    18 -.51933115500597E-04
    19 -.12777610674391E-04
    20 -.46452552409165E-04
    21 -.47998654523835E-03
    22 0.15291906971541E-02
    23 -.43209595033424E-04
    24 -.28249614229221E-04
    25 -.10948564704048E-03
    26 0.95019306390073E-04
    27 0.47673361791453E-04
    28 0.72112092923874E-03
    29 -.16037005136734E-04
    30 -.66802956905552E-05
    31 0.22717300827290E-04
    32 -.11024676615142E-05
    33 -.39737144332232E-05
    34 -.11431576317685E-04
    35 0.15427839117284E-04
    36 0.14585349627036E-03
    37 -.41243325116789E-03
    38 0.20526922781452E-04
    39 -.21592752847708E-04
    40 0.37752432226131E-04
    41 -.59659644735445E-04
    42 0.69238668308074E-04
    43 -.18655092484732E-03
    44 0.45278167702916E-05
    45 0.19278555180049E-05
    46 -.64556722882965E-05
    47 0.31132914207654E-06
    48 0.17418449826295E-04
    49 -.46917467200393E-05
    50 0.44108717211843E-04
    51 0.45056406241966E-03
    52 -.13972396752291E-02
    53 -.29565219115552E-04
    54 -.14121884648258E-05
    55 0.11934388346229E-03
    56 -.30575346106826E-06
    57 0.10631853523331E-03
    58 -.61931451118380E-03
    59 0.47117186372246E-05
    60 0.63382584385471E-06
    61 -.53455444810793E-05
    62 0.19714106291373E-05
    63 -.72420193456179E-05
    64 0.16205934323067E-04
    65 -.54503012896539E-04
    66 0.45486811030014E-03
    67 -.15415041574868E-04
    68 0.22935354957328E-04
    69 -.17924482257263E-04
    70 0.61945943224239E-04
    71 -.22662992023431E-03
    72 0.81435344424835E-05
    73 0.51977801052758E-05
    74 0.39537304256406E-04
    75 0.42286350245464E-04
    76 0.86111316651465E-03
    77 -.10354605802950E-03
    78 0.92563576986241E-04
    79 0.66006097727120E-04
    80 0.13720488155126E-03
    81 0.21537817110836E-02
    82 0.59810214206962E-04
    83 -.11944002321139E-03
    84 0.29280030248983E-04
    85 -.75116322889648E-04
    86 -.25798272581993E-03
    87 -.19623166955120E-05
    88 -.14712781060771E-04
    89 -.38965527380596E-04
    90 -.10920116368542E-03
    91 -.24606257555177E-02
    92 0.58225292924515E-04
    93 0.20819588894743E-04
    94 0.21345129385398E-05
 Sym=     9a   
 Ene= -.85763627023449E+00
 Spin= Alpha
 Occup= 2.000000
     1 0.15593840932340E-02
     2 -.96566446869071E-02
     3 0.12986415233195E-01
     4 0.54969975694810E-02
     5 0.22401934769889E-03
     6 0.19772007252321E-03
     7 -.24166932412958E-02
     8 0.41111402629395E-03
     9 0.33296899439603E-03
    10 -.43000251843175E-02
    11 0.28052521270900E-03
    12 0.43745008730510E-03
    13 -.24995571959811E-02
    14 -.35039416123641E-03
    15 -.35045875013347E-03
    16 0.70085291136988E-03
    17 0.42494861096491E-04
    18 -.15644202070764E-03
    19 -.17274566552651E-03
    20 0.24793088131500E+00
    21 0.49231379546466E+00
    22 0.24727347525325E+00
    23 -.28690799989149E-01
    24 -.85295025083129E-01
    25 0.43088522333161E-01
    26 -.21297798913036E-02
    27 0.15628401582162E-02
    28 -.14364602942754E-02
    29 -.19931953856102E-02
    30 0.11441888418433E-02
    31 0.84900654376689E-03
    32 0.62733337046557E-03
    33 -.29392981350870E-03
    34 0.30401510175179E-03
    35 0.84768916315899E-01
    36 0.16798474055764E+00
    37 0.82798309935568E-01
    38 -.97584922448601E-02
    39 0.31047141866477E-01
    40 0.14039737661535E-01
    41 0.28589420719122E-02
    42 0.20105916384225E-02
    43 -.29254673391073E-03
    44 -.31135620411798E-03
    45 0.22339531453202E-03
    46 0.87960889585961E-04
    47 -.33426563660111E-03
    48 0.27133088187471E-03
    49 0.65922559920350E-04
    50 0.76736022181264E-01
    51 0.15245423815153E+00
    52 0.71412635840475E-01
    53 0.34523926009655E-01
    54 -.16181999170481E-02
    55 0.85346698508440E-02
    56 0.19470845096535E-02
    57 -.23699913789356E-02
    58 0.55295451211950E-03
    59 0.64228466951557E-03
    60 -.75032083624763E-03
    61 0.10803616673206E-03
    62 0.23250248404722E-03
    63 -.14817468010484E-03
    64 -.48163775604261E-03
    65 0.18228848136578E+00
    66 0.99284344561769E-02
    67 0.28710115046232E-02
    68 0.26636356712321E-01
    69 0.16182992553678E-01
    70 0.69429267330895E-01
    71 0.14778931892472E-01
    72 -.35079711127026E-02
    73 -.54911115550446E-02
    74 0.60437449055203E-02
    75 0.56801846235259E-01
    76 0.42501517268915E-02
    77 -.20759107316828E-02
    78 -.88515619629535E-05
    79 -.10341139199300E-01
    80 0.52597835780576E-01
    81 0.18925845419938E-02
    82 -.42407448861681E-03
    83 0.20050185329962E-02
    84 -.89928800114979E-02
    85 0.65196700309967E-01
    86 0.70203354763525E-02
    87 0.83544415541178E-02
    88 -.58990547652473E-02
    89 0.44946058588233E-02
    90 0.16964965599867E+00
    91 0.53417348349932E-02
    92 0.10693515050868E-02
    93 0.29206732390560E-03
    94 -.30839490748440E-01
 Sym=    10a   
 Ene= -.83095782076473E+00
 Spin= Alpha
 Occup= 2.000000
     1 0.99247415186096E-03
     2 -.61464758960240E-02
     3 0.83741691274319E-02
     4 0.30333630098632E-02
     5 -.53692179607194E-03
     6 -.13338153672271E-02
     7 -.13276732146416E-02
     8 -.86654554151617E-03
     9 -.23826781958416E-02
    10 -.23087851046981E-02
    11 -.82094219608836E-03
    12 -.15039819294004E-02
    13 -.12532878499122E-02
    14 -.28565701068609E-03