 operating system is UNIX !

 force (missouri) : TURBOMOLE V7.2 ( 21454 ) 4 Oct 2017 at 12:24:43
 Copyright (C) 2017 TURBOMOLE GmbH, Karlsruhe


    2018-03-19 22:03:30.168 



                             T U R B O M O L E   

                          a o f o r c e - program

                        using direct algorithms for

                       SCF level calculations of
                         * harmonic force constants
                         * hyperpolarizabilities
                         * IR and RAMAN intensities
                         * VCD intensities

                       DFT level calculations of
                         * harmonic force constants
                         * IR intensities
                                                   
       Stephan Boecker, Peter Deglmann, Filipp Furche and Marco Haeser
                          Quantum Chemistry Group
                          Universitaet  Karlsruhe
                                   Germany

 
 
 
 
     References :
 
       RI-J implementation:
         Peter Deglmann, Klaus May, Filipp Furche, Reinhart Ahlrichs
                 Chem. Phys. Lett. 384:103 (2004)
 
       Efficiency, technical details:
         Peter Deglmann, Filipp Furche, Reinhart Ahlrichs
                 Chem. Phys. Lett. 362:511 (2002)
 
       Search of lowest eigenvalues by iterative diagonalization:
         Peter Deglmann, Filipp Furche
                 J. Chem. Phys. 117:9535 (2002)
 
       Vibrational circular dichroism implementation:
        Kevin Reiter, Michael Kuehn, Florian Weigend
                 J. Chem. Phys. 146:054102 (2017)  
 
 


              +--------------------------------------------------+
              | Atomic coordinate, charge and isotop information |
              +--------------------------------------------------+

                    atomic coordinates            atom    charge  isotop
         -1.04741874   -2.71025719   -1.49988443    c      6.000     0
         -2.77945038   -0.61359439   -1.55147516    c      6.000     0
          1.54829245   -2.27474986   -1.71355598    c      6.000     0
          2.48038838    0.24849572   -2.11637087    c      6.000     0
          0.79382292    2.28003119   -2.16334784    c      6.000     0
         -1.88089821    1.83869977   -1.94307644    c      6.000     0
          3.28433119   -3.70993046   -0.28692283    c      6.000     0
          2.23112172   -5.70239281    1.13661688    c      6.000     0
         -0.31522648   -6.07306070    1.44271735    n      7.000     0
         -1.90866492   -4.52571532    0.24627035    c      6.000     0
         -4.66397072   -3.82994926    0.98707213    c      6.000     0
         -4.84953087   -1.05491449    0.07043898    c      6.000     0
         -6.03732358    1.12744878    1.03651628    c      6.000     0
         -5.10478969    3.52842952    0.75148591    n      7.000     0
         -3.00150180    3.84910277   -0.60503978    c      6.000     0
         -1.02718224    6.01456459   -0.40933783    c      6.000     0
          1.46103719    4.62024463   -1.07349381    c      6.000     0
          5.73441651   -2.12460244   -0.04361635    c      6.000     0
          4.81134270    0.53966160   -0.86379011    c      6.000     0
          5.59419257    2.78746422   -0.02695100    n      7.000     0
          3.96641880    4.79814149   -0.18011498    c      6.000     0
          4.67209217    6.54548813    0.69557536    h      1.000     0
          6.47663333   -2.09048979    1.90830890    h      1.000     0
          7.27395121   -2.82660153   -1.28333465    h      1.000     0
          3.42704925   -6.93428421    2.30721062    h      1.000     0
         -7.67144408    0.98464386    2.31227408    h      1.000     0
         -6.05844564   -5.08306055    0.04705551    h      1.000     0
         -4.95358747   -4.01382680    3.04735663    h      1.000     0
         -1.45571184    7.57616421   -1.74220492    h      1.000     0
         -0.99994373    6.82884934    1.51361800    h      1.000     0
 
       center of nuclear mass  :   -0.02795143   -0.03881239   -0.34631569
       center of nuclear charge:   -0.02448398   -0.03399696   -0.30334815

              +--------------------------------------------------+
              |               basis set information              |
              +--------------------------------------------------+

              we will work with the 1s 3p 5d 7f 9g ... basis set
              ...i.e. with spherical basis functions...

   type   atoms  prim   cont   basis
   ---------------------------------------------------------------------------
    c       18     24     14   def2-SV(P)   [3s2p1d|7s4p1d]
    n        3     24     14   def2-SV(P)   [3s2p1d|7s4p1d]
    h        9      4      2   def2-SV(P)   [2s|4s]
   ---------------------------------------------------------------------------
   total:   30    540    312
   ---------------------------------------------------------------------------

   total number of primitive shells          :   28
   total number of contracted shells         :  144
   total number of cartesian basis functions :  333
   total number of SCF-basis functions       :  312

 
             FOUND RI-J FLAG !
 

 NOTE: THIS IS A PRELIMINARY IMPLEMENTATION. THE RI APPROXIMATION IS
       PRESENTLY USED FOR CPKS CONTRIBUTIONS TO THE HESSIAN ONLY! SEE
       MANUAL FOR FURTHER DETAILS.

  
 AUXILIARY BASIS SET information:

              we will work with the 1s 3p 5d 7f 9g ... basis set
              ...i.e. with spherical basis functions...

   type   atoms  prim   cont   basis
   ---------------------------------------------------------------------------
    c       18     70     49   def2-SV(P)   [6s4p3d1f1g|12s5p4d2f1g]
    n        3     70     49   def2-SV(P)   [6s4p3d1f1g|12s5p4d2f1g]
    h        9     16     11   def2-SV(P)   [3s1p1d|5s2p1d]
   ---------------------------------------------------------------------------
   total:   30   1614   1128
   ---------------------------------------------------------------------------

   total number of primitive shells          :   56
   total number of contracted shells         :  360
   total number of cartesian basis functions : 1389
   total number of SCF-basis functions       : 1128


 symmetry group of the molecule :   c1 

 the group has the following generators :
   c1(z)

    1 symmetry operations found

 there are 1 real representations :   a   

 maximum number of shells which are related by symmetry :  1


 determining totally symmetric integral contributions 
    - equivalent to irreducible tensor elements - 
 which can be formed within each triple of representations :

             representation triple      contributions

              a     a     a               1

    mo occupation :
   irrep   mo's   occupied
    a      312       69
 
 number of basis functions   :                    312
 number of occupied orbitals :                     69
 
  MOs are in ASCII format !


 reading orbital data $scfmo  from file mos
 orbital characterization : scfconv=7
 time elapsed for calculating density matrices :   0.005 sec

 number of non-frozen orbitals          :   312
 number of non-frozen occupied orbitals :    69
 Blocking parameters 
 shells:
    index      start shell   last shell  start bf    last bf    #bf 
       1             1         128             1        237    237
       2           129         144           238        333     96
  
           ----------------------
               RI - INFORMATION
           ----------------------

 biggest AO integral is expected to be     4.152585025

 Threshold for integral neglect (rithr2):   0.75E-11
 Threshold for integral neglect (rithr1):   0.75E-11

 Contributions to RI integral batches: 
  neglected integral batches:                  1452
  direct contribution:                           98
  memory contribution:                  8890
 Core memory available (ricore):               500 MiB
 Core memory needed for (P|Q) and Cholesky:     10 MiB
 Core memory used for integrals:               488 MiB
 
 ****************************************
 Memory allocated for RIDFT: 497 MiB
 ****************************************
 
  
           ------------------
           density functional
           ------------------
 TPSS meta-GGA functional
 exchange:    LDA + TPSS
 correlation: LDA (PW) + TPSS

 iterations will be done with small grid
  
 spherical integration : Lebedev's spherical grid
 spherical gridsize    :                     3
    i.e. gridpoints    :                   302
 value for diffuse not defined
 radial integration    : Chebyshev 2nd kind (scaling 3)
 radial gridsize       :                     3
 integration cells     :                    30
 partition function    : becke
 partition sharpness   :                     3
  
 
 Derivatives of quadrature weights will be included
 
          Overall gridpoints after grid construction =        156071
 Ordering of quadrature gridpoints disabled.
 
 
 
 
 OCCUPIED-OCCUPIED TENSOR SPACES :

          IRREP   tensor space dimension   number of roots

           a              4761                  84
 
 OCCUPIED-VIRTUAL TENSOR SPACES :

          IRREP   tensor space dimension   number of roots

           a             16767                  84
 
 
 
 
 CONSTRUCTING integral bounds

 setting up bound for integral derivative estimation

 increment for numerical differentiation : 0.00050000
 
 machine precision:   2.220446049250313E-016

 integral neglect threshold       :  0.10E-09
 integral storage threshold THIZE :  0.10E-04
 integral storage threshold THIME :         5

 
 
 
 PREPARING NUMERICAL INTEGRATION
 
 Remaining core memory for DFT =                   379 MB
 
 Memory needed per atom    =                  1303 KiB
 
     i. e.                    30 atoms per loop

 Calculating ground state density on molecular grid

 Integral of ground state density: N =   138.0002294995220    


 
 
 CONSTRUCTING first deriv. of <mu|x,y,z|nu> -> Dip. deriv.
  dipole integral derivatives will be neglected if
  expon. factor <0.150150E-11
      ...terminated. cpu:       0.02       wall:       0.02
 
 
 
 
 CONSTRUCTING first deriv. of  <mu|nu>
                               <mu|h|nu>    -> RHS
              second deriv. of <mu|nu>      -> Hessian
                               <mu|h|nu>    -> Hessian
                               nucl. rep.   -> Hessian
     integrals are neglected if expon. factor <  1.501501501501502E-013
  _________________________________
 |                                 |
 |         DFTD3 V3.1 Rev 0        |
 | S.Grimme, University Bonn       |
 |         June 2014               |
 |   see standalone version        |
 |       dftd3 -h for options      |
 |_________________________________|
 
 Please cite DFT-D3 work done with this code as:
 S. Grimme, J. Antony, S. Ehrlich and H. Krieg,
 J. Chem. Phys, 132 (2010), 154104.
 If used with BJ-damping cite also
 S. Grimme, S. Ehrlich and L. Goerigk,
 J. Comput. Chem. 32 (2011), 1456-1465
 For DFT-D2 the reference is
 S. Grimme, J. Comput. Chem., 27 (2006), 1787-1799
 
      ...terminated. cpu:       1.93       wall:       2.05
 
 
 
 
 CONSTRUCTING second deriv. of 2e energy    -> Hessian
   treating Coulomb (and exchange) contribution
     integrals will be neglected if total contribution <  1.501501501501501E-009
      ...terminated. cpu:     316.57       wall:     316.62
   treating exchange-correlation contribution
      ...terminated. cpu:     169.33       wall:     169.34
 
 
 
 
 CONSTRUCTING S(i,j)xi
      ...terminated. cpu:       0.03       wall:       0.03
 
 
 
 
 CONSTRUCTING <i|x,y,z|j>*S(i,j)xi          -> Dip. deriv.
      ...terminated. cpu:       0.03       wall:       0.03
 
 
 
 
 CONSTRUCTING epsilon(i)*S(i,j)xi*S(i,j)chi -> Hessian
      ...terminated. cpu:       0.01       wall:       0.01
 
 
 
 
 CONSTRUCTING G(a,i)[S(k,l)xi]              -> RHS
              G(i,j)[S(k,l)xi]*S(i,j)chi    -> Hessian
 
         Maximum core memory set to                    500 MB
         This corresponds to                   589 vectors in CAO basis
      ...terminated. cpu:     660.06       wall:     660.17
 
 
 
 
 CONSTRUCTING G(mu,nu)[D(kap,lam)]xi
 
          Maximum core memory set to                    500 MB
          Atoms treated simultaneously :                    30
      ...terminated. cpu:     472.82       wall:     472.87
 
 
 
 
 CONSTRUCTING F(a,i)xi                      -> RHS
              F(i,j)xi*S(i,j)chi            -> Hessian
 
        Maximum core memory set to                   500 MB
        This corresponds to                   905 vectors in CAO basis
      ...terminated. cpu:       0.97       wall:       0.97
 
 
 
 
 CONSTRUCTING epsilon(i)*S(a,i)xi           -> RHS
      ...terminated. cpu:       0.16       wall:       0.16
 
 
 
 
 SOLVING CPHF equations
 
 Residuum convergence criterium   :  1.000000000000000E-005
 
 Maximum number of Davidson iterations set to                    25
  Switching to small grid
        preparing numerical integration ....
          Overall gridpoints after grid construction =         43594

 Calculating ground state density on molecular grid

 Integral of ground state density: N =   138.0023135655006    




                       Nonorthonormal Krylov Space Iteration


 total number of roots to be determined:  84


 maximum core memory set to   500 MB,
 corresponding to      577 vectors in CAO basis


 maximum number of simultaneously treated vectors (including degeneracy):       84


 Iteration IRREP Converged      Max. Euclidean
                 roots          residual norm

    1       a        0        5.488661231653142D-02
 
    2       a        0        4.919361100768197D-03
 
    3       a        0        2.719806096651762D-04
 
    4       a       84        9.244456521952812D-06
 

 converged!

  Switching to fine grid
        preparing numerical integration ....
          Overall gridpoints after grid construction =        156071

 Calculating ground state density on molecular grid

 Integral of ground state density: N =   138.0002294995235    



 Iteration IRREP Converged      Max. Euclidean
                 roots          residual norm

    5       a        0        2.376407627629261D-04
 

 NOTE: Residual norms are larger than 1.00D-05 due to mgrid option!

      ...terminated. cpu:     974.36       wall:     974.42
 
 
 
 
 CONSTRUCTING <a|x,y,z|i>*U(a,i)xi          -> Dip. deriv.
      ...terminated. cpu:       0.03       wall:       0.03
 
 
 
 
 CONSTRUCTING RHS(a,i)xi*U(a,i)chi          -> Hessian
      ...terminated. cpu:       0.02       wall:       0.02
 
 
 
 

            -----------------------
            permanent dipole moment
            -----------------------

                                   x                y                z
    electronic part       :    3.3724848026     4.6845433302    41.7984096082
     nuclear   part       :   -3.3787895931    -4.6915802279   -41.8620453325
     total                :   -0.0063047905    -0.0070368977    -0.0636357242

 with reference to the point :   0.0000000        0.0000000        0.0000000
 (given in atomic units)
    | dipole |       :    0.1635201784  debye

   ***  dipole moment & cartesian dipole gradients written onto
        $dipole, $dipgrad,  file=<dipgrad>  ***

             -----------------------------------
             rotational and vibrational analysis
             -----------------------------------


            ==============================================================
            ATOMIC WEIGHTS (average over the natural occurance of isotops)
            ==============================================================
            ('*' denotes special isotop !)
              1     c                12.01115
              2     c                12.01115
              3     c                12.01115
              4     c                12.01115
              5     c                12.01115
              6     c                12.01115
              7     c                12.01115
              8     c                12.01115
              9     n                14.00670
             10     c                12.01115
             11     c                12.01115
             12     c                12.01115
             13     c                12.01115
             14     n                14.00670
             15     c                12.01115
             16     c                12.01115
             17     c                12.01115
             18     c                12.01115
             19     c                12.01115
             20     n                14.00670
             21     c                12.01115
             22     h                 1.00797
             23     h                 1.00797
             24     h                 1.00797
             25     h                 1.00797
             26     h                 1.00797
             27     h                 1.00797
             28     h                 1.00797
             29     h                 1.00797
             30     h                 1.00797

          -------------------------------------------------
          CARTESIAN FORCE CONSTANT MATRIX (hartree/bohr**2)
         (translational & rotational space projected out)
          -------------------------------------------------

   ATOM              1 c                           2 c 
                  dx        dy        dz        dx        dy        dz
   1 c     dx  0.7169897
           dy -0.0246478 0.5248825
           dz -0.1060807-0.1879016 0.2833667
   2 c     dx -0.1573945 0.0856739 0.0076053 0.5446186
           dy  0.0913559-0.1936185 0.0183742 0.0066455 0.7068826
           dz  0.0192203 0.0071771-0.0550065-0.1930658-0.0924170 0.2797093
   3 c     dx -0.3311465-0.0224342 0.0156490-0.0379916 0.0200237 0.0016483
           dy -0.0500775-0.1094493 0.0349920 0.0155625 0.0172012-0.0096912
           dz  0.0181275 0.0322847-0.0629033-0.0033983-0.0078340 0.0015030
   4 c     dx -0.0183546-0.0291281 0.0112940 0.0034150 0.0002316-0.0010762
           dy -0.0298431-0.0011965-0.0018554 0.0064342-0.0151213-0.0005887
           dz  0.0038229-0.0038008 0.0032607 0.0005578-0.0014945 0.0004300
   5 c     dx -0.0134860 0.0088281-0.0034328-0.0117221-0.0351068 0.0035438
           dy  0.0031826 0.0019450-0.0001820-0.0316330-0.0062076 0.0094830
           dz -0.0004341 0.0006260 0.0002646-0.0016237 0.0060492-0.0014464
   6 c     dx  0.0197067 0.0058360-0.0071683-0.1309774-0.0826378 0.0412216
           dy  0.0061378-0.0393992 0.0086428-0.0552359-0.3086904 0.0288542
           dz -0.0092069 0.0012461 0.0035986 0.0383055 0.0299280-0.0642564
   7 c     dx -0.0342723 0.0139584-0.0076685-0.0035098-0.0041705-0.0017743
           dy  0.0294004 0.0311983-0.0187945-0.0013026-0.0001624 0.0026769
           dz -0.0282629-0.0169458 0.0129532 0.0029609 0.0017491 0.0054084
   8 c     dx -0.0253594-0.0313118 0.0237697-0.0055777 0.0048721 0.0031390
           dy -0.0153311-0.0149730 0.0082217-0.0018077 0.0003065-0.0010971
           dz  0.0097581 0.0093019-0.0132218 0.0020718-0.0010131 0.0005855
   9 n     dx  0.0373340 0.0450353-0.0389470 0.0095258-0.0112888 0.0017836
           dy  0.0038791-0.0364747 0.0480229-0.0056965 0.0053636 0.0092184
           dz -0.0121784 0.0443329-0.0118596 0.0072126 0.0001404-0.0025049
  10 c     dx -0.1309904-0.0625370 0.0697181 0.0113482 0.0140382-0.0096231
           dy -0.0286190-0.1590486 0.0892942 0.0175622-0.0498656 0.0143617
           dz  0.0479344 0.1064246-0.1636151-0.0129439 0.0269342-0.0029774
  11 c     dx -0.0183230-0.0084333 0.0137421-0.0027058-0.0152569 0.0087766
           dy -0.0074386 0.0015631 0.0071420-0.0138164-0.0119444 0.0146886
           dz  0.0272383 0.0047457-0.0048366 0.0105884 0.0261994-0.0089466
  12 c     dx -0.0424304 0.0251606 0.0119607-0.1997025-0.0166211 0.1108641
           dy  0.0253200 0.0027060-0.0083005-0.0487873-0.1078182 0.0387606
           dz  0.0217686-0.0100743 0.0013502 0.1197156 0.0163438-0.1526743
  13 c     dx -0.0020959 0.0002903 0.0077209-0.0223268 0.0210093 0.0153633
           dy -0.0115534 0.0093742-0.0002852 0.0525813 0.0310391-0.0331466
           dz  0.0016252 0.0043473 0.0006418 0.0277779-0.0143709-0.0092289
  14 n     dx  0.0030950-0.0039457-0.0015861-0.0339592-0.0273622 0.0165052
           dy  0.0053237-0.0034028 0.0028330-0.0285267-0.0133819 0.0163213
           dz -0.0016193 0.0004414-0.0019425 0.0100627 0.0133661-0.0128775
  15 c     dx -0.0027826-0.0013661 0.0033987 0.0449763 0.0212087-0.0215212
           dy -0.0038631-0.0038446-0.0020118-0.0043456-0.0469775 0.0004925
           dz  0.0021995 0.0032617 0.0050188-0.0226637-0.0227973 0.0138664
  16 c     dx  0.0000113 0.0000312 0.0001034 0.0004324 0.0021293 0.0011311
           dy -0.0004463-0.0002426 0.0003915-0.0000690-0.0031505-0.0023991
           dz -0.0009484-0.0010162 0.0004085 0.0058947-0.0019895 0.0013230
  17 c     dx  0.0025042-0.0034583 0.0003177-0.0076554 0.0096954-0.0004431
           dy  0.0018487-0.0035065 0.0009544 0.0009125 0.0093881-0.0027153
           dz  0.0019554-0.0018099-0.0003414 0.0008148 0.0049028 0.0030547
  18 c     dx -0.0020458-0.0005561-0.0016129-0.0006620-0.0003820 0.0002603
           dy  0.0039324 0.0004919 0.0029175 0.0002563 0.0006705 0.0002723
           dz  0.0000276 0.0062688 0.0024713-0.0009944-0.0006472 0.0005193
  19 c     dx  0.0104200-0.0021677-0.0023160-0.0031199 0.0043278 0.0007599
           dy  0.0046699-0.0082981 0.0008998-0.0021729 0.0029503-0.0004773
           dz  0.0055247 0.0020751 0.0025532-0.0022583 0.0024866-0.0002785
  20 n     dx  0.0008734-0.0005100 0.0018230-0.0008214 0.0016791-0.0010338
           dy -0.0082767 0.0038943 0.0003928 0.0042396-0.0081597 0.0005169
           dz -0.0016683-0.0018004 0.0011634 0.0009197-0.0003819-0.0003270
  21 c     dx -0.0046577 0.0033952-0.0008249 0.0032371-0.0083436 0.0004645
           dy  0.0031009-0.0024442-0.0007717-0.0015234 0.0044448 0.0004201
           dz -0.0013345 0.0011915-0.0004592-0.0002541-0.0029451 0.0013150
  22 h     dx -0.0000252 0.0001907 0.0000173-0.0004444 0.0000571 0.0001995
           dy -0.0000389 0.0000211 0.0000498 0.0000892 0.0000003 0.0000572
           dz  0.0000086-0.0001488-0.0000031-0.0004936 0.0002639-0.0003871
  23 h     dx -0.0002043 0.0013896 0.0000899-0.0002391-0.0001978 0.0002332
           dy  0.0003382 0.0014576 0.0005283-0.0001143-0.0003447 0.0002017
           dz  0.0003887 0.0000246-0.0003094 0.0000197-0.0000340-0.0000769
  24 h     dx -0.0009018-0.0007289-0.0008311 0.0001595-0.0001744-0.0000424
           dy -0.0002169-0.0003622-0.0006532 0.0001409-0.0002117-0.0000500
           dz  0.0001638-0.0000037-0.0004415 0.0000227-0.0000474-0.0000134
  25 h     dx -0.0004597 0.0000341 0.0001226 0.0001750 0.0002286-0.0000651
           dy -0.0007895-0.0008927-0.0003303-0.0004575-0.0004926-0.0007114
           dz  0.0001892-0.0008654-0.0001493-0.0005391-0.0007201-0.0008998
  26 h     dx -0.0000525-0.0006517-0.0000074 0.0014114 0.0023450 0.0045336
           dy  0.0008682 0.0006858-0.0008514 0.0022702-0.0044762-0.0014966
           dz  0.0005959-0.0000899-0.0005594 0.0024241-0.0019231 0.0058167
  27 h     dx -0.0006083 0.0011558 0.0022467-0.0010445 0.0004221-0.0010291
           dy -0.0000850-0.0007170-0.0020450 0.0017334-0.0014814 0.0007108
           dz  0.0004296 0.0005614-0.0011158 0.0007863 0.0005818-0.0009549
  28 h     dx -0.0052027 0.0008387 0.0007302-0.0005649 0.0012228 0.0000809
           dy  0.0020583-0.0002663 0.0000765 0.0009630-0.0052786 0.0012724
           dz  0.0008810-0.0000022-0.0002879 0.0000537 0.0007665-0.0001007
  29 h     dx  0.0000953 0.0002191-0.0000108-0.0005073 0.0000198-0.0003012
           dy -0.0000219 0.0001252-0.0000421-0.0006322-0.0003436-0.0005197
           dz -0.0000528 0.0001051 0.0000177 0.0001814 0.0001898-0.0004296
  30 h     dx -0.0002362-0.0001603 0.0001773 0.0016270 0.0000299 0.0002463
           dy -0.0001670-0.0002081 0.0002912 0.0010564-0.0005201-0.0001757
           dz -0.0000731 0.0000433-0.0000163 0.0002597 0.0003393-0.0001447

   ATOM              3 c                           4 c 
                  dx        dy        dz        dx        dy        dz
   3 c     dx  0.7295031
           dy  0.0466513 0.5517099
           dz  0.0739385-0.1649258 0.2533401
   4 c     dx -0.1136071-0.0560813 0.0025118 0.6316138
           dy -0.0587678-0.2389999 0.0447403-0.0547202 0.6902085
           dz -0.0010141 0.0284886-0.0558740 0.1454867-0.0298929 0.2074126
   5 c     dx  0.0213072 0.0173991 0.0015295-0.2067924 0.1234401-0.0187866
           dy  0.0142322-0.0391677 0.0070964 0.0962106-0.2470779-0.0063728
           dz  0.0028248 0.0010097-0.0014958-0.0150418-0.0089734-0.0502101
   6 c     dx -0.0068591-0.0118927 0.0038761-0.0299391 0.0232193 0.0010041
           dy -0.0061801-0.0036267 0.0010579 0.0241740 0.0120858 0.0048921
           dz  0.0031037 0.0042240-0.0007815 0.0063648-0.0006962 0.0016937
   7 c     dx -0.1936628 0.0831990-0.0892384 0.0125263 0.0118148-0.0023610
           dy  0.0492893-0.1342733 0.0680502 0.0092952-0.0490486 0.0174854
           dz -0.0706135 0.0790817-0.1333657-0.0055651 0.0268799-0.0017027
   8 c     dx  0.0507710-0.0031948 0.0082835-0.0001465 0.0128158-0.0047644
           dy  0.0252303-0.0347316 0.0269394 0.0028125 0.0059015 0.0059182
           dz -0.0173428 0.0353203-0.0164639-0.0047159-0.0040142 0.0021981
   9 n     dx -0.0496455 0.0217286-0.0165016-0.0014251-0.0080672-0.0009497
           dy  0.0220113-0.0047712 0.0011182 0.0008645 0.0005584-0.0032576
           dz -0.0107563-0.0031875-0.0059681 0.0002250-0.0000889-0.0013099
  10 c     dx -0.0063825-0.0304914 0.0176174-0.0061435 0.0023326 0.0023154
           dy -0.0558464 0.0135841-0.0073446 0.0002772-0.0003323 0.0045079
           dz  0.0413913-0.0021350 0.0045245-0.0014995 0.0003927 0.0049468
  11 c     dx -0.0011539 0.0005945 0.0020045-0.0001106 0.0001551-0.0003000
           dy -0.0026772-0.0004949 0.0029967-0.0001287 0.0000636-0.0000367
           dz -0.0004250 0.0063236 0.0002017 0.0014982-0.0003197 0.0002281
  12 c     dx  0.0089576 0.0086525 0.0004343-0.0026609-0.0042333-0.0000481
           dy  0.0000133-0.0081541 0.0020451 0.0004682 0.0019780-0.0005420
           dz -0.0059633-0.0025147 0.0039249 0.0010682 0.0033613-0.0006645
  13 c     dx  0.0003516-0.0002060-0.0003682-0.0000460-0.0007684 0.0010695
           dy  0.0065437 0.0077496-0.0018839-0.0009119-0.0070520 0.0004941
           dz  0.0022722 0.0006214 0.0008374-0.0003461-0.0009700-0.0004894
  14 n     dx -0.0035811-0.0054991 0.0013393-0.0003670 0.0069510-0.0016258
           dy -0.0034623-0.0050511 0.0000484 0.0001542 0.0053296 0.0009820
           dz  0.0009425 0.0026637-0.0007198 0.0027455-0.0025718 0.0009303
  15 c     dx  0.0020298 0.0044617-0.0009484-0.0031806-0.0108722 0.0027054
           dy -0.0010558-0.0028268 0.0014142-0.0060101 0.0050700-0.0014544
           dz -0.0014140-0.0039937 0.0003248-0.0027319 0.0060586 0.0027128
  16 c     dx  0.0004620 0.0001149-0.0003600-0.0001567-0.0027054-0.0008738
           dy  0.0010338-0.0003393-0.0000511 0.0013612-0.0033884-0.0025980
           dz  0.0009774-0.0005381 0.0004379-0.0049944-0.0019404 0.0044261
  17 c     dx -0.0039146 0.0017386 0.0004385 0.0428852 0.0076470 0.0129679
           dy  0.0033917-0.0004615-0.0030807 0.0273827-0.0381859 0.0013100
           dz -0.0012853 0.0019836 0.0061236 0.0196300-0.0135527 0.0052767
  18 c     dx -0.0312034 0.0005128-0.0123627-0.0167251 0.0148913-0.0119872
           dy  0.0012381 0.0068726-0.0014084 0.0132331-0.0041599 0.0059420
           dz -0.0233754-0.0049892 0.0005160-0.0167061 0.0186334-0.0009870
  19 c     dx -0.0247384-0.0407870 0.0014320-0.2383266-0.0177715-0.0947619
           dy -0.0359235-0.0200766-0.0057942 0.0200141-0.0989400 0.0072046
           dz -0.0083794-0.0142991 0.0035411-0.1020578-0.0119911-0.1170354
  20 n     dx -0.0036720 0.0000736-0.0086472-0.0089148-0.0323089-0.0197675
           dy  0.0040661 0.0159529-0.0056679-0.0785177-0.0091800-0.0415635
           dz -0.0039184 0.0045707 0.0002220-0.0254538-0.0261317 0.0069067
  21 c     dx  0.0000324 0.0054177-0.0010332-0.0433126 0.0075047-0.0131270
           dy -0.0008353-0.0049101 0.0040898 0.0264159-0.0014653 0.0102007
           dz  0.0000248 0.0016909 0.0002489-0.0088530 0.0012944-0.0087901
  22 h     dx -0.0001203 0.0001288 0.0004661-0.0008821 0.0005653 0.0003310
           dy -0.0004246 0.0001245 0.0002876-0.0002597-0.0001585 0.0003341
           dz  0.0007675-0.0002587-0.0012160 0.0008409 0.0004753-0.0004635
  23 h     dx -0.0034027-0.0025112-0.0001849-0.0004378 0.0009122-0.0004910
           dy -0.0027644-0.0026400 0.0003025 0.0020699-0.0051118 0.0006401
           dz  0.0003102 0.0004747 0.0000915-0.0006148 0.0010671-0.0002216
  24 h     dx -0.0006722-0.0012723-0.0000442-0.0002669 0.0003572 0.0004190
           dy -0.0004391-0.0021148-0.0010700-0.0003483-0.0008104 0.0030812
           dz -0.0009181 0.0008141-0.0006853-0.0008464-0.0000120-0.0013662
  25 h     dx -0.0007845-0.0028596 0.0007476 0.0006508-0.0003108 0.0005091
           dy -0.0024467-0.0011119 0.0060478 0.0010389 0.0001197 0.0001095
           dz  0.0021519 0.0044487 0.0046412-0.0005948 0.0005818-0.0006897
  26 h     dx -0.0000891-0.0000050-0.0002138 0.0000890 0.0001048-0.0000809
           dy  0.0001957-0.0004424 0.0001116-0.0001236-0.0000697 0.0000235
           dz -0.0000635-0.0005687-0.0002985 0.0001199 0.0000648-0.0000230
  27 h     dx -0.0005732 0.0006099 0.0005720 0.0001917 0.0000629-0.0000025
           dy -0.0001204-0.0002079-0.0000084-0.0001609 0.0000093 0.0000479
           dz -0.0002101-0.0000865-0.0005074-0.0000863-0.0001104 0.0000388
  28 h     dx  0.0003880-0.0016533 0.0000696-0.0004108 0.0000494-0.0002586
           dy -0.0006548 0.0006890 0.0003671 0.0000945-0.0000916 0.0000018
           dz -0.0004769 0.0003439-0.0001086 0.0000780-0.0000908 0.0000511
  29 h     dx -0.0001073-0.0002881 0.0001149-0.0007005 0.0003354 0.0010095
           dy  0.0000089 0.0000874-0.0000212 0.0006177-0.0004008-0.0005635
           dz  0.0000512 0.0000945-0.0000435-0.0000837 0.0000666-0.0006145
  30 h     dx -0.0004952-0.0000261-0.0002022 0.0015357 0.0007752-0.0009982
           dy  0.0001035-0.0001202 0.0000920-0.0003253-0.0005337-0.0000869
           dz  0.0001029 0.0000420-0.0000472-0.0005953 0.0001838-0.0000708

   ATOM              5 c                           6 c 
                  dx        dy        dz        dx        dy        dz
   5 c     dx  0.6639805
           dy -0.0646312 0.6717410
           dz  0.0218385 0.1211071 0.1987269
   6 c     dx -0.2609264-0.0270945 0.0076781 0.5871788
           dy -0.0290594-0.0970444-0.0094096 0.0689465 0.7132260
           dz  0.0240314-0.0050774-0.0497171-0.1380319 0.0801667 0.2259616
   7 c     dx  0.0007757-0.0060686-0.0006947-0.0014112 0.0004781 0.0006069
           dy -0.0130842 0.0008750 0.0025791 0.0049014-0.0000382-0.0009227
           dz  0.0071583-0.0024621 0.0031287-0.0037466-0.0008911 0.0001239
   8 c     dx  0.0082684-0.0013214 0.0002954-0.0057097-0.0024225 0.0004237
           dy  0.0046583-0.0003619-0.0003075-0.0022511-0.0008950 0.0012569
           dz -0.0038289 0.0021218 0.0010408 0.0024123 0.0007113-0.0009473
   9 n     dx -0.0089436 0.0005421 0.0010486 0.0068991 0.0046340-0.0017974
           dy  0.0026639-0.0000829 0.0005242-0.0030605-0.0018527-0.0009930
           dz -0.0012685-0.0006809-0.0003076-0.0001637 0.0029546 0.0008999
  10 c     dx  0.0006041-0.0001020-0.0008053-0.0048194 0.0041770 0.0011404
           dy -0.0054719-0.0006026-0.0002294 0.0103141 0.0056732 0.0006051
           dz  0.0046588 0.0007953-0.0004598-0.0032402-0.0066762 0.0038097
  11 c     dx  0.0003786-0.0007951 0.0003162-0.0013605-0.0033520 0.0043078
           dy -0.0001983-0.0001457-0.0001954 0.0015690-0.0005735 0.0006251
           dz -0.0000088 0.0013547 0.0002910 0.0052888-0.0022966 0.0028562
  12 c     dx  0.0014393-0.0006991 0.0035469-0.0034797-0.0477119-0.0009871
           dy  0.0014404-0.0051893 0.0027079-0.0306116 0.0122538 0.0171724
           dz -0.0001736-0.0008693 0.0054979 0.0068187 0.0341913 0.0010300
  13 c     dx -0.0025132-0.0005708-0.0023776 0.0024146-0.0017585-0.0045565
           dy -0.0069349-0.0033982-0.0010661 0.0154125-0.0498493-0.0162648
           dz -0.0001793-0.0003384 0.0012605-0.0006391-0.0041698-0.0061176
  14 n     dx  0.0137730 0.0047606 0.0058394-0.0373503 0.0524737 0.0506329
           dy  0.0077656-0.0018199-0.0064402 0.0092979 0.0371014-0.0021513
           dz -0.0057102-0.0066325 0.0005305 0.0443391-0.0243007-0.0109403
  15 c     dx -0.0477753 0.0196383 0.0138871-0.1099351 0.0258428 0.0373053
           dy  0.0264052 0.0090141-0.0023381 0.0640086-0.2214887-0.0920787
           dz  0.0254093-0.0052528-0.0028770 0.0540910-0.0812747-0.1211891
  16 c     dx  0.0031333 0.0122117 0.0057321 0.0031765-0.0057636 0.0004793
           dy  0.0153469-0.0256059-0.0113112-0.0062356-0.0288943-0.0095999
           dz  0.0140055-0.0185899-0.0014603-0.0081053-0.0200444 0.0039567
  17 c     dx -0.1035281-0.0136145-0.0192552-0.0303745-0.0345021-0.0043234
           dy -0.0504634-0.2544688-0.0901196-0.0358474-0.0135675-0.0017732
           dz -0.0348588-0.0875799-0.1026442-0.0106555-0.0095318 0.0057339
  18 c     dx -0.0033362 0.0013352-0.0029462 0.0000016 0.0005470 0.0001794
           dy -0.0012026-0.0004144 0.0006520-0.0001134 0.0000469-0.0001993
           dz -0.0043879-0.0037518 0.0023322-0.0003705 0.0013739 0.0001390
  19 c     dx -0.0318154 0.0499642 0.0006578-0.0013860 0.0021485-0.0038847
           dy  0.0200403 0.0399653 0.0115129 0.0009678-0.0059617 0.0006901
           dz -0.0128622 0.0236447 0.0036652 0.0017380-0.0009599 0.0057682
  20 n     dx  0.0058266 0.0071352 0.0041374-0.0023318-0.0013623 0.0036688
           dy  0.0059046-0.0594013-0.0113764 0.0071690 0.0021369-0.0011684
           dz  0.0050596-0.0043147-0.0067298-0.0004699 0.0002083-0.0020621
  21 c     dx -0.0148838-0.0650260-0.0218442 0.0113827 0.0027227-0.0050470
           dy -0.0312912 0.0174267-0.0025791-0.0072004-0.0061487-0.0047769
           dz -0.0193609-0.0220430-0.0033885 0.0045736-0.0020068 0.0026819
  22 h     dx -0.0051675 0.0005270-0.0035118 0.0003884-0.0012902-0.0004664
           dy  0.0005598 0.0011785-0.0021024 0.0002975 0.0001681 0.0002481
           dz -0.0028397-0.0000544 0.0067485-0.0004714-0.0006207-0.0004869
  23 h     dx -0.0004661 0.0000451-0.0002835-0.0000672 0.0001164 0.0001432
           dy  0.0011486 0.0013535-0.0005111 0.0000826-0.0004054-0.0002050
           dz -0.0000977-0.0007518 0.0000783 0.0000605 0.0001310 0.0000177
  24 h     dx -0.0001295 0.0003248-0.0003982 0.0000385 0.0000466-0.0000457
           dy -0.0002007-0.0006587 0.0005780-0.0001492 0.0001839-0.0000084
           dz  0.0001163-0.0002028-0.0005020 0.0001609-0.0000509 0.0000186
  25 h     dx -0.0001624-0.0002464 0.0000044-0.0000556 0.0000656 0.0000209
           dy -0.0001043-0.0002576-0.0002294-0.0002022 0.0000546-0.0000497
           dz  0.0005010 0.0002747-0.0004103-0.0000889 0.0000510-0.0000029
  26 h     dx -0.0002510 0.0005431-0.0007515-0.0004848 0.0006924-0.0005203
           dy -0.0000773 0.0001519 0.0001601-0.0002310-0.0007764 0.0002139
           dz -0.0003654 0.0005586-0.0011121-0.0008109 0.0003990-0.0002348
  27 h     dx -0.0001124 0.0000023-0.0000229-0.0000926-0.0002741-0.0001071
           dy  0.0003085 0.0000664 0.0000347 0.0002630-0.0009324 0.0011609
           dz -0.0001254-0.0000157-0.0000179-0.0001588-0.0000116-0.0006876
  28 h     dx -0.0001877 0.0000946 0.0000419 0.0003232-0.0005293 0.0005417
           dy  0.0001473-0.0004481-0.0002137-0.0016903 0.0007161-0.0005471
           dz -0.0000726 0.0000853-0.0000252 0.0002189-0.0005850-0.0001041
  29 h     dx -0.0022614-0.0007519 0.0013637-0.0012212-0.0003181-0.0028796
           dy  0.0003195-0.0003581 0.0003872-0.0007775-0.0005731-0.0010532
           dz  0.0000768-0.0010955-0.0008505 0.0004828-0.0007561-0.0006531
  30 h     dx -0.0050262 0.0018050 0.0007784-0.0027286-0.0034430 0.0005984
           dy  0.0014498-0.0010064-0.0005257-0.0022901-0.0029292 0.0000279
           dz  0.0004307-0.0002539 0.0000896 0.0001565-0.0000481-0.0001088

   ATOM              7 c                           8 c 
                  dx        dy        dz        dx        dy        dz
   7 c     dx  0.5193890
           dy  0.0559328 0.5123862
           dz  0.0648819-0.2285351 0.3367415
   8 c     dx -0.1341643-0.0396671-0.0026010 0.5830516
           dy -0.0700135-0.2072891 0.1009990-0.0343453 0.4695899
           dz  0.0377505 0.1085577-0.1370756 0.0714276-0.2593855 0.3609157
   9 n     dx -0.0265517-0.0661039 0.0582442-0.2613571-0.0113508-0.0001523
           dy -0.0253311 0.0112031-0.0018525-0.0318492-0.0801780 0.0221814
           dz  0.0207009 0.0025113 0.0188544 0.0212940 0.0243733-0.0840905
  10 c     dx  0.0044399 0.0131409-0.0104958-0.0725839 0.0184382-0.0176683
           dy  0.0007743-0.0354874 0.0254201 0.0539101 0.0099355-0.0111293
           dz -0.0015128 0.0251579-0.0263059-0.0424313-0.0143877 0.0161014
  11 c     dx -0.0010769-0.0019187 0.0021041 0.0075098 0.0041058 0.0023042
           dy  0.0004266-0.0016807 0.0019645 0.0028587 0.0040423 0.0029508
           dz -0.0007974-0.0001137 0.0000033-0.0021135 0.0056816 0.0015529
  12 c     dx -0.0004914 0.0003436-0.0007643-0.0003553-0.0003522-0.0012436
           dy  0.0000190 0.0016110-0.0000868 0.0004436-0.0011904 0.0013943
           dz  0.0007954 0.0000384-0.0005611-0.0016408 0.0004352 0.0006382
  13 c     dx -0.0000978-0.0001641-0.0009883-0.0005504-0.0001469 0.0005034
           dy  0.0003271-0.0019050 0.0008449 0.0022630 0.0012413-0.0012955
           dz  0.0002814 0.0001316-0.0004972-0.0004806 0.0000761-0.0003994
  14 n     dx -0.0006926 0.0026885-0.0010160-0.0020032-0.0014542 0.0012821
           dy -0.0004159 0.0009831-0.0009869-0.0013727-0.0009175 0.0011654
           dz  0.0002839-0.0012010 0.0009244 0.0013707 0.0006086-0.0005296
  15 c     dx  0.0010574-0.0022055 0.0009132 0.0013637 0.0014429-0.0011973
           dy -0.0002528 0.0021565-0.0004400-0.0015750-0.0008607 0.0006840
           dz -0.0001281 0.0012607-0.0012637-0.0012909-0.0007745 0.0006660
  16 c     dx -0.0002412-0.0002659 0.0002506 0.0001227 0.0001840-0.0000569
           dy -0.0000243-0.0001402 0.0002076 0.0001006 0.0000426-0.0000278
           dz -0.0003659-0.0001493 0.0000474 0.0001284-0.0000928 0.0001654
  17 c     dx  0.0011470 0.0004252-0.0008796-0.0014580-0.0008646 0.0000068
           dy  0.0011056-0.0001571 0.0004039-0.0010143-0.0006943 0.0004260
           dz -0.0000233-0.0007770-0.0004375 0.0000624-0.0011015-0.0003755
  18 c     dx -0.1267954-0.0225598-0.0127915-0.0090218-0.0090184 0.0064813
           dy -0.0432354-0.0930559 0.0032795-0.0152185-0.0009632-0.0062966
           dz -0.0129075-0.0009900-0.0772527 0.0153018 0.0028788 0.0011178
  19 c     dx  0.0014190-0.0190902 0.0023537-0.0065006-0.0005323-0.0028083
           dy -0.0184599-0.0348776 0.0007079 0.0010839-0.0002484-0.0025075
           dz  0.0033097 0.0071678 0.0002710-0.0029580-0.0029126-0.0005284
  20 n     dx -0.0004903 0.0017820 0.0001044 0.0009493-0.0000435 0.0003106
           dy  0.0060178-0.0039360 0.0050800 0.0010255 0.0029969-0.0012321
           dz  0.0007108 0.0036686-0.0010638-0.0005788 0.0006680 0.0018882
  21 c     dx -0.0008844-0.0002727 0.0008394 0.0018402 0.0016290-0.0004649
           dy -0.0011448-0.0009153-0.0013058-0.0009910-0.0009710-0.0001980
           dz -0.0001239-0.0015810 0.0009011 0.0004456 0.0007805-0.0005793
  22 h     dx -0.0000616 0.0002783-0.0001365 0.0000691 0.0000015 0.0001333
           dy  0.0002022-0.0001044 0.0000503-0.0000612 0.0000791-0.0000545
           dz -0.0000404-0.0003222 0.0002748 0.0000390 0.0000073-0.0001569
  23 h     dx -0.0095907 0.0000932-0.0214577 0.0014702 0.0013361-0.0006123
           dy -0.0050019 0.0002080-0.0166635 0.0002391 0.0009403-0.0007784
           dz  0.0010529-0.0001057 0.0029461 0.0006155 0.0007580 0.0001991
  24 h     dx -0.0175154 0.0053282 0.0117485-0.0005301 0.0006094-0.0006536
           dy -0.0140663 0.0079205 0.0118119-0.0010003-0.0006565-0.0003146
           dz -0.0026761 0.0031341 0.0029690 0.0006783-0.0000389 0.0006314
  25 h     dx  0.0108250-0.0072116 0.0079692-0.1285681 0.0874005-0.0847183
           dy  0.0134485-0.0053143 0.0117875 0.0858159-0.1500969 0.1036599
           dz -0.0102249 0.0118237-0.0065883-0.0897619 0.0998671-0.1329985
  26 h     dx -0.0000972 0.0000410-0.0000201-0.0001431-0.0000522 0.0000562
           dy  0.0000860 0.0001330 0.0000245 0.0000531 0.0000081-0.0000182
           dz -0.0000602 0.0000017 0.0000699 0.0000170 0.0000084 0.0000396
  27 h     dx -0.0001245 0.0000844-0.0000248-0.0007815 0.0010540 0.0012578
           dy  0.0003030 0.0001813-0.0001493-0.0003120-0.0005984-0.0003249
           dz  0.0002033-0.0002849 0.0001415 0.0004267-0.0000714-0.0003676
  28 h     dx  0.0001663 0.0005513 0.0001007-0.0005011-0.0012418-0.0004109
           dy  0.0001001-0.0003646-0.0000564 0.0001248 0.0005106 0.0001366
           dz -0.0000135-0.0004188 0.0003034 0.0008329 0.0006201 0.0000313
  29 h     dx -0.0000797 0.0000966-0.0001585-0.0000314-0.0000625 0.0000917
           dy  0.0000469-0.0000595 0.0000547 0.0000122 0.0000410-0.0000428
           dz  0.0000335-0.0000100 0.0000454 0.0000385 0.0000385-0.0000240
  30 h     dx  0.0000656 0.0001741-0.0001069-0.0000728-0.0000345 0.0000267
           dy -0.0000550-0.0000464 0.0000285 0.0000386-0.0000098 0.0000217
           dz -0.0000001-0.0000392 0.0000066 0.0000314 0.0000327-0.0000133

   ATOM              9 n                          10 c 
                  dx        dy        dz        dx        dy        dz
   9 n     dx  0.5396050
           dy -0.0866990 0.2773189
           dz  0.0634957-0.1587401 0.2250144
  10 c     dx -0.1958861 0.0987914-0.0643780 0.5658459
           dy  0.0971429-0.1720063 0.1002246-0.0945093 0.4740792
           dz -0.0568695 0.0912982-0.1498907-0.0171729-0.2332708 0.3978592
  11 c     dx -0.0243707 0.0121178-0.0092575-0.1260193-0.0039889 0.0277857
           dy  0.0170783-0.0035681-0.0066408 0.0138568-0.0713954 0.0001756
           dz -0.0166032-0.0048043 0.0048980 0.0266672 0.0029856-0.0887657
  12 c     dx -0.0062803 0.0021632 0.0025146-0.0101379 0.0262717-0.0013063
           dy -0.0015849 0.0006984-0.0027879 0.0241823-0.0246258-0.0009732
           dz  0.0050046-0.0030771 0.0000798-0.0060685 0.0029897 0.0012337
  13 c     dx  0.0020674-0.0003655 0.0009845-0.0020255-0.0021029-0.0005685
           dy -0.0018972 0.0019863 0.0001781-0.0036127-0.0027640 0.0046347
           dz -0.0008158 0.0003288 0.0017798 0.0000503 0.0042871-0.0025206
  14 n     dx  0.0020800-0.0011068-0.0010011-0.0004887-0.0000016 0.0001172
           dy  0.0028403-0.0012911-0.0002308-0.0004584-0.0012367-0.0011809
           dz -0.0007302 0.0006150-0.0004274 0.0000188-0.0016896 0.0013842
  15 c     dx -0.0018101 0.0001120 0.0009883 0.0019642 0.0010462-0.0002965
           dy  0.0008188-0.0005472 0.0001005-0.0000267 0.0000215 0.0003758
           dz  0.0006775-0.0010730-0.0003509 0.0004395-0.0007273-0.0001412
  16 c     dx -0.0001497-0.0000370-0.0000267-0.0000070 0.0000266-0.0000426
           dy  0.0000713-0.0002074 0.0001408-0.0000458-0.0000208 0.0002132
           dz -0.0002169 0.0000611 0.0000823 0.0007112-0.0001601-0.0001628
  17 c     dx  0.0019796-0.0013682 0.0007844 0.0004699 0.0020774-0.0016215
           dy  0.0019453-0.0012002 0.0006228-0.0001044 0.0023657-0.0010779
           dz  0.0009402 0.0000816 0.0004049-0.0004540 0.0002489-0.0009164
  18 c     dx  0.0098760-0.0024878-0.0038386-0.0028438 0.0035977-0.0029742
           dy -0.0017707 0.0001609 0.0044840 0.0015907-0.0019638 0.0013508
           dz -0.0001926 0.0046757 0.0016878 0.0006001 0.0001284 0.0001144
  19 c     dx -0.0006050-0.0000865 0.0019287 0.0009652-0.0016716 0.0003508
           dy  0.0003400-0.0002875 0.0009794-0.0004134 0.0011054 0.0007438
           dz  0.0013958 0.0008777 0.0005882-0.0003565-0.0002219-0.0001735
  20 n     dx  0.0003972-0.0001184-0.0003334-0.0004555 0.0008819 0.0005270
           dy -0.0039177 0.0003841-0.0001890 0.0001584-0.0017038 0.0012321
           dz  0.0009160-0.0008433-0.0004322-0.0005533 0.0007725-0.0005345
  21 c     dx -0.0029075 0.0012207-0.0007951-0.0000198-0.0025372 0.0017406
           dy  0.0011641-0.0004069 0.0006538 0.0004102 0.0007023-0.0008717
           dz -0.0012506 0.0002832-0.0001114 0.0001237-0.0008245 0.0005035
  22 h     dx  0.0000387 0.0000379-0.0000699-0.0000592-0.0001050-0.0000260
           dy -0.0000846-0.0000180 0.0000486-0.0000243-0.0000631-0.0000361
           dz -0.0000238-0.0001207 0.0001031 0.0001513 0.0002292 0.0000414
  23 h     dx -0.0007281 0.0004170 0.0005503 0.0003115-0.0002106 0.0000037
           dy -0.0002757 0.0004483 0.0003639 0.0000165-0.0003906-0.0000424
           dz -0.0007421 0.0001017 0.0000553 0.0001795-0.0003895 0.0003388
  24 h     dx -0.0006001-0.0004482-0.0007315-0.0000489-0.0002088-0.0000587
           dy  0.0000918-0.0002974-0.0007478-0.0005343-0.0002055-0.0001141
           dz -0.0001249 0.0001658-0.0001345-0.0001425-0.0002233 0.0001288
  25 h     dx -0.0316575 0.0155751-0.0151072-0.0037357-0.0002684-0.0000169
           dy -0.0000945 0.0053911-0.0089455-0.0029054 0.0058362 0.0036893
           dz  0.0043865-0.0052312 0.0018422 0.0016534 0.0034189 0.0055537
  26 h     dx  0.0001867-0.0000435-0.0000728-0.0002301 0.0001919 0.0000264
           dy -0.0001293 0.0000565 0.0000490 0.0001043 0.0000571-0.0000009
           dz  0.0000473-0.0000992 0.0000017 0.0003349 0.0000214-0.0000859
  27 h     dx -0.0001972-0.0009980 0.0005351-0.0186399-0.0150822-0.0120384
           dy  0.0006022-0.0003548-0.0001694 0.0055916 0.0078757 0.0061018
           dz -0.0007550 0.0005723 0.0005429 0.0057694 0.0059049 0.0040948
  28 h     dx  0.0028441-0.0001262-0.0012104-0.0042835-0.0033453 0.0299361
           dy -0.0007529 0.0000627 0.0001463-0.0011142 0.0005349-0.0088098
           dz -0.0011844-0.0000717 0.0005405 0.0002726 0.0008116-0.0040926
  29 h     dx  0.0001895-0.0000258-0.0000513-0.0002159-0.0000413 0.0000994
           dy  0.0000195-0.0000449 0.0000363-0.0001122-0.0000196 0.0000796
           dz -0.0000478 0.0000310 0.0000015-0.0000349-0.0000033 0.0000391
  30 h     dx  0.0000918-0.0000056 0.0000266 0.0000676-0.0000638 0.0000482
           dy -0.0000374-0.0000431 0.0000681 0.0001622-0.0000389-0.0000230
           dz -0.0000352 0.0000064 0.0000111-0.0000098 0.0000018-0.0000321

   ATOM             11 c                          12 c 
                  dx        dy        dz        dx        dy        dz
  11 c     dx  0.4310454
           dy  0.0931762 0.4094104
           dz -0.0097899-0.0029473 0.5728830
  12 c     dx -0.0724733-0.0062479 0.0070435 0.4548489
           dy  0.0148620-0.1379832 0.0260377-0.0788230 0.5793659
           dz  0.0056900 0.0243688-0.0862350-0.2212242-0.0001425 0.3332190
  13 c     dx  0.0071423-0.0015244-0.0049096-0.1389835 0.0915383 0.0696225
           dy  0.0033532-0.0203754-0.0096215 0.0601869-0.2266122-0.0273805
           dz -0.0098649 0.0026942 0.0043481 0.0640645-0.0668218-0.1129168
  14 n     dx  0.0045225 0.0064615 0.0026498 0.0404091-0.0199451-0.0267248
           dy  0.0060432 0.0052388-0.0031441 0.0240265-0.0682441-0.0292311
           dz  0.0044579 0.0000783 0.0019981-0.0145201 0.0021459 0.0313702
  15 c     dx -0.0043392-0.0025834 0.0006070-0.0306392 0.0253940 0.0221630
           dy -0.0000721-0.0000567-0.0005439 0.0123372-0.0040755-0.0090960
           dz  0.0028515 0.0019835-0.0003172 0.0203932-0.0171835-0.0225013
  16 c     dx -0.0000974-0.0002540-0.0003395-0.0008760-0.0003666 0.0007700
           dy  0.0007840 0.0004636 0.0007660 0.0017758-0.0022345-0.0023067
           dz -0.0009689-0.0005923-0.0006008-0.0000954 0.0012798 0.0003739
  17 c     dx -0.0003068 0.0003301 0.0003626 0.0009425-0.0007517 0.0004681
           dy -0.0000758-0.0001071-0.0002177-0.0011893 0.0001423 0.0005750
           dz -0.0002228 0.0000485 0.0000288-0.0001098-0.0008837-0.0005322
  18 c     dx  0.0006026 0.0005402 0.0006755-0.0000370-0.0000597 0.0000853
           dy -0.0005823-0.0003197-0.0005002 0.0001610-0.0003149-0.0002332
           dz -0.0007300-0.0008023-0.0005393 0.0000181 0.0004730-0.0000107
  19 c     dx -0.0001081-0.0000895-0.0002087 0.0029442-0.0010129-0.0007378
           dy  0.0001938 0.0000266 0.0006852 0.0013517-0.0000625-0.0009035
           dz -0.0002020-0.0001253-0.0000987 0.0007754-0.0007873-0.0009254
  20 n     dx -0.0001894 0.0000197 0.0001061-0.0004286 0.0001678-0.0003837
           dy -0.0001086-0.0002335-0.0001756-0.0030088 0.0011016 0.0013911
           dz -0.0000528-0.0000582 0.0001159-0.0004527 0.0002778 0.0005321
  21 c     dx  0.0001884-0.0001412 0.0000186-0.0015147 0.0007494 0.0010905
           dy -0.0000123-0.0000083 0.0001962 0.0009565-0.0004315 0.0004095
           dz  0.0000387 0.0000160 0.0001456-0.0002214-0.0003649-0.0005445
  22 h     dx -0.0000318 0.0000122 0.0000598 0.0000241-0.0001381 0.0000721
           dy -0.0000153 0.0000031 0.0000057-0.0000977 0.0000299 0.0000182
           dz  0.0000087-0.0000036-0.0000067 0.0000574 0.0000609 0.0000478
  23 h     dx -0.0001469-0.0001500-0.0000897-0.0000703 0.0001473 0.0000399
           dy -0.0001323-0.0001990-0.0001196-0.0001015 0.0001097 0.0000522
           dz -0.0000272-0.0000213 0.0000109-0.0000092-0.0000081-0.0000147
  24 h     dx  0.0000953 0.0001179 0.0001071-0.0001231 0.0000079 0.0001240
           dy  0.0001378 0.0000757 0.0000942-0.0000704 0.0000113 0.0001214
           dz  0.0000142-0.0000066 0.0000232-0.0000053-0.0000162 0.0000150
  25 h     dx  0.0003086 0.0005521-0.0006359-0.0003021-0.0000316 0.0001351
           dy  0.0002738 0.0006707 0.0000934-0.0001967 0.0002082 0.0001157
           dz  0.0002610 0.0003809 0.0002632-0.0002089 0.0002129 0.0002036
  26 h     dx -0.0002350-0.0010529-0.0007607-0.0036039-0.0033675 0.0072411
           dy -0.0009473 0.0011058-0.0000483 0.0184281 0.0064484-0.0162635
           dz -0.0012116-0.0006508-0.0011674 0.0112611-0.0000405-0.0039154
  27 h     dx -0.1518096-0.1012841-0.0803261 0.0057418 0.0021528 0.0040993
           dy -0.1002691-0.1284061-0.0714679-0.0172168-0.0175343-0.0106780
           dz -0.0765952-0.0684552-0.0947896 0.0082406 0.0056682 0.0051784
  28 h     dx -0.0468232 0.0005697 0.0340890-0.0001193-0.0013384-0.0036873
           dy  0.0002074-0.0451141 0.0210927-0.0048053-0.0026778 0.0283280
           dz  0.0346742 0.0204832-0.3035361 0.0006178 0.0005319-0.0036092
  29 h     dx  0.0001256 0.0000985 0.0000847-0.0000708-0.0003566-0.0000327
           dy  0.0001355 0.0000367 0.0001324-0.0001979 0.0001324 0.0000989
           dz -0.0000248-0.0000104 0.0000282-0.0003050-0.0000278 0.0001357
  30 h     dx -0.0002378-0.0000806-0.0000765-0.0005274 0.0002686-0.0001354
           dy -0.0001800-0.0000947-0.0000733-0.0002426 0.0003513-0.0000683
           dz -0.0000898-0.0000505-0.0000363-0.0002907 0.0001984 0.0002746

   ATOM             13 c                          14 n 
                  dx        dy        dz        dx        dy        dz
  13 c     dx  0.5148961
           dy  0.0036942 0.5472326
           dz -0.2730441 0.0212562 0.3520393
  14 n     dx -0.1047225-0.0504736 0.0326073 0.4067493
           dy -0.0717552-0.2366853 0.0273937 0.1121761 0.4016415
           dz  0.0289758 0.0073392-0.0845813-0.2052665-0.0214461 0.2331740
  15 c     dx -0.0406934-0.0687222 0.0166938-0.2561595-0.0298687 0.1315744
           dy -0.0326771-0.0045437 0.0266735-0.0338732-0.1055714-0.0037986
           dz  0.0176739 0.0504931-0.0013569 0.1208724-0.0058224-0.1552332
  16 c     dx  0.0020501 0.0005746 0.0013005-0.0210032-0.0182454 0.0036485
           dy  0.0004102 0.0081938-0.0050660-0.0122646 0.0003061 0.0127144
           dz  0.0060508-0.0025611 0.0028476 0.0076088 0.0183264-0.0023778
  17 c     dx -0.0009474 0.0004227 0.0018292-0.0014144-0.0021205-0.0032146
           dy  0.0010062-0.0000753 0.0005529-0.0060821-0.0049033 0.0005552
           dz  0.0010124 0.0013895 0.0001381-0.0037930-0.0015933 0.0008139
  18 c     dx -0.0000625 0.0000086 0.0000118-0.0001961 0.0000048 0.0001519
           dy -0.0001181 0.0002114 0.0000466 0.0000936-0.0001259 0.0000024
           dz -0.0001278-0.0000839 0.0001763 0.0001559 0.0002059 0.0000300
  19 c     dx -0.0002526 0.0027375 0.0005494-0.0012865-0.0011915-0.0001193
           dy -0.0005065 0.0012623 0.0005560-0.0007314-0.0012821-0.0006625
           dz  0.0000945 0.0013072 0.0001803-0.0010932 0.0001946-0.0001244
  20 n     dx  0.0000396 0.0002729 0.0003145-0.0011974-0.0008783 0.0005186
           dy  0.0002201-0.0035368-0.0009776 0.0031141 0.0021652 0.0002909
           dz -0.0002315-0.0007668 0.0000636 0.0001946-0.0002772-0.0006269
  21 c     dx -0.0001178-0.0027800-0.0007503 0.0029783 0.0012742-0.0006863
           dy -0.0000346 0.0008783-0.0000988 0.0000053 0.0010348-0.0007453
           dz  0.0003015 0.0001531-0.0004553 0.0006841 0.0006950 0.0018223
  22 h     dx -0.0000267-0.0001211-0.0000070 0.0001637 0.0001610 0.0000434
           dy -0.0000126-0.0001105-0.0000030 0.0000295 0.0000867 0.0000176
           dz  0.0000015 0.0000199 0.0000420-0.0001244-0.0000178-0.0000055
  23 h     dx -0.0000275-0.0000623 0.0000135 0.0000075 0.0000936 0.0000192
           dy  0.0000097-0.0000703-0.0000230 0.0000566 0.0000330-0.0000612
           dz  0.0000100-0.0000279 0.0000006 0.0000113 0.0000210 0.0000173
  24 h     dx  0.0000409-0.0000755-0.0000754 0.0000139 0.0000889 0.0000290
           dy  0.0000202-0.0000558-0.0000514 0.0001342 0.0001366-0.0000105
           dz  0.0000065-0.0000430-0.0000014 0.0000199-0.0000075-0.0000096
  25 h     dx  0.0000982 0.0000133-0.0001275 0.0000148 0.0001148 0.0000520
           dy -0.0000254 0.0000035-0.0001264-0.0000455 0.0000367 0.0000562
           dz -0.0000114-0.0000804-0.0001084-0.0000817 0.0000942 0.0000801
  26 h     dx -0.2133076-0.0018684 0.1379900-0.0102806-0.0117166 0.0026945
           dy -0.0037095-0.0518719 0.0028194-0.0280366-0.0112203 0.0213409
           dz  0.1374980 0.0090748-0.1465843 0.0001429 0.0022139-0.0029131
  27 h     dx -0.0004721 0.0009423-0.0001504-0.0002216-0.0003683-0.0002096
           dy -0.0006945-0.0006128 0.0010439 0.0002976-0.0004128 0.0010663
           dz -0.0001777-0.0002913 0.0005282 0.0001419 0.0001039-0.0003980
  28 h     dx  0.0003933 0.0002460-0.0004554 0.0001159-0.0001644 0.0000887
           dy -0.0006069 0.0019117 0.0005324-0.0007664-0.0003682-0.0005354
           dz  0.0005118-0.0013278 0.0002945 0.0006509 0.0007030 0.0000272
  29 h     dx -0.0009855 0.0001839-0.0009567-0.0001415-0.0007028-0.0002297
           dy -0.0010078-0.0007041-0.0008317 0.0011420-0.0003581-0.0001910
           dz -0.0000233-0.0002586-0.0000600 0.0006343 0.0006011 0.0004801
  30 h     dx  0.0007608-0.0007506 0.0005109 0.0011425 0.0018829 0.0002886
           dy  0.0005572-0.0008614 0.0004880 0.0012039 0.0021791 0.0005444
           dz -0.0000164-0.0007996 0.0001393 0.0002224 0.0006268 0.0001244

   ATOM             15 c                          16 c 
                  dx        dy        dz        dx        dy        dz
  15 c     dx  0.5673969
           dy  0.0423825 0.5176420
           dz -0.2140168 0.1006695 0.3511580
  16 c     dx -0.0899386-0.0375834-0.0045678 0.3362264
           dy -0.0194333-0.1185192-0.0165802-0.0356696 0.5143274
           dz -0.0057482-0.0165858-0.0784911 0.0162847 0.0248055 0.5641722
  17 c     dx -0.0421535-0.0053779 0.0020371-0.1256343 0.0189409 0.0161401
           dy -0.0060468 0.0089361-0.0001308 0.0390876-0.0931754-0.0182353
           dz  0.0082372 0.0021192 0.0001371 0.0103467-0.0156497-0.0785409
  18 c     dx -0.0000182 0.0000880 0.0001938 0.0001382-0.0006488 0.0009931
           dy -0.0001720-0.0001606-0.0000559 0.0001516 0.0004657-0.0003537
           dz -0.0005267-0.0005171 0.0000087-0.0000575 0.0008921-0.0008282
  19 c     dx  0.0000482 0.0011736 0.0002001 0.0000446-0.0025918-0.0001670
           dy -0.0001866 0.0018392-0.0003747 0.0002247-0.0050423 0.0008922
           dz -0.0008849-0.0004942 0.0000112 0.0003202-0.0022572 0.0002920
  20 n     dx -0.0009008 0.0004181-0.0011814-0.0004407-0.0042671-0.0030829
           dy -0.0001439-0.0004313 0.0009334-0.0041022 0.0085861-0.0022366
           dz -0.0015117 0.0012649 0.0010540-0.0010750-0.0053946 0.0035839
  21 c     dx  0.0000385 0.0034123 0.0035319-0.0145337 0.0074481-0.0074847
           dy  0.0018273-0.0054430-0.0011160 0.0153492 0.0050702 0.0085303
           dz  0.0032580-0.0015416-0.0018573 0.0041618 0.0068934 0.0005727
  22 h     dx -0.0001374-0.0001600 0.0000230 0.0016312-0.0000067 0.0002791
           dy -0.0002739-0.0001072-0.0000119 0.0000087-0.0003213 0.0004778
           dz -0.0000860-0.0002912-0.0000046-0.0000320 0.0011701-0.0016178
  23 h     dx -0.0000543-0.0001003-0.0000232-0.0000180 0.0000513-0.0000393
           dy  0.0001304 0.0000756-0.0000545-0.0000336-0.0002512 0.0001611
           dz -0.0000291-0.0000122-0.0000180 0.0000133 0.0001537-0.0000985
  24 h     dx -0.0000028-0.0000021 0.0000198-0.0000393-0.0000218 0.0000814
           dy -0.0000769-0.0002379-0.0000576 0.0000008 0.0001706-0.0001773
           dz  0.0000277 0.0001025 0.0000439 0.0000098-0.0000068 0.0000584
  25 h     dx -0.0000045-0.0000134-0.0000156-0.0000016-0.0000052-0.0000250
           dy  0.0001019-0.0001539 0.0000861-0.0000295-0.0000375-0.0000469
           dz  0.0001025-0.0001953 0.0000828 0.0000003 0.0000010 0.0000121
  26 h     dx  0.0050078-0.0012003 0.0036103 0.0002444-0.0001400 0.0004347
           dy -0.0039819-0.0034217 0.0004435-0.0004414 0.0007438 0.0004053
           dz  0.0032065-0.0009403 0.0060737 0.0003128-0.0005288 0.0002515
  27 h     dx  0.0001439 0.0003983-0.0001704-0.0000262-0.0000583 0.0000434
           dy  0.0000701-0.0002998 0.0002093-0.0000550 0.0001554-0.0001713
           dz -0.0001408 0.0003275 0.0000255-0.0000039-0.0000407 0.0000681
  28 h     dx -0.0001497 0.0002227-0.0000827-0.0000681 0.0000713-0.0000795
           dy  0.0003548 0.0000843 0.0000744 0.0001001-0.0002274 0.0001967
           dz -0.0005103 0.0000919 0.0003193-0.0000317 0.0000895-0.0000461
  29 h     dx  0.0058665-0.0162418 0.0154056-0.0488326 0.0372329-0.0335419
           dy  0.0021022-0.0152417 0.0120368 0.0384749-0.1784166 0.1244154
           dz  0.0018252-0.0029316 0.0027049-0.0329957 0.1196683-0.1475361
  30 h     dx  0.0007816-0.0072344-0.0213428-0.0456087-0.0027003-0.0037696
           dy -0.0001824-0.0100303-0.0202299-0.0031172-0.0783106-0.0940707
           dz  0.0005246 0.0009550 0.0013936-0.0044021-0.0942893-0.2713193

   ATOM             17 c                          18 c 
                  dx        dy        dz        dx        dy        dz
  17 c     dx  0.6220855
           dy  0.0158364 0.5002704
           dz  0.1011974 0.1515334 0.2458215
  18 c     dx -0.0025367-0.0013964-0.0020563 0.5025116
           dy  0.0015226-0.0005731 0.0006592-0.0529605 0.3492353
           dz  0.0008899-0.0002993 0.0003685 0.0284817 0.0265713 0.5627212
  19 c     dx -0.0275918-0.0189172-0.0146786-0.0876511 0.0326797-0.0193500
           dy -0.0330018-0.0141645-0.0159594 0.0151840-0.1135939 0.0213368
           dz -0.0176067-0.0108248-0.0154842-0.0159386 0.0198814-0.0857807
  20 n     dx -0.0437412 0.0204116-0.0159001 0.0087191 0.0043398 0.0112867
           dy  0.0687891 0.0276066 0.0370449-0.0023198-0.0332095-0.0082445
           dz -0.0055642 0.0119473 0.0198418 0.0098513-0.0021884 0.0014060
  21 c     dx -0.2740851 0.0006591-0.0561102 0.0060683-0.0040702-0.0044461
           dy -0.0380257-0.1118406-0.0461163-0.0040190 0.0033190-0.0040185
           dz -0.0794159-0.0225301-0.0931123-0.0043161 0.0013415 0.0036981
  22 h     dx -0.0029312-0.0229582-0.0127758 0.0008618 0.0001116 0.0000974
           dy  0.0013581 0.0030234 0.0000644-0.0003691-0.0000092-0.0005078
           dz -0.0060573-0.0109107-0.0011282-0.0005582 0.0000504 0.0003907
  23 h     dx  0.0001389-0.0001166 0.0000419-0.0720661-0.0034982-0.0864999
           dy -0.0005393-0.0002000 0.0002837-0.0039437-0.0452320-0.0044315
           dz  0.0004567 0.0002691 0.0001625-0.0862967-0.0037401-0.2780851
  24 h     dx  0.0003243 0.0000067 0.0001018-0.1735706 0.0627530 0.1138024
           dy  0.0001596-0.0001809 0.0000479 0.0629319-0.0679941-0.0531440
           dz  0.0000855 0.0003526 0.0000518 0.1093617-0.0512808-0.1329568
  25 h     dx  0.0001285 0.0000302-0.0000297 0.0001790 0.0008534 0.0000455
           dy  0.0000793-0.0001040-0.0000380 0.0010499 0.0007736-0.0010791
           dz  0.0000046-0.0000449 0.0000790 0.0007696-0.0011482-0.0012592
  26 h     dx  0.0001919-0.0000654 0.0000479-0.0000150 0.0000275-0.0000302
           dy -0.0001690-0.0002704-0.0000552 0.0000146-0.0000133 0.0000451
           dz  0.0003380 0.0001923 0.0001875-0.0000013 0.0000042-0.0000016
  27 h     dx  0.0000052 0.0000083 0.0000428 0.0001245-0.0001384-0.0001682
           dy -0.0000834-0.0001451-0.0001299-0.0000733 0.0000082 0.0000301
           dz  0.0000099 0.0000523 0.0000431 0.0000063 0.0000123 0.0000576
  28 h     dx  0.0000453 0.0000405 0.0000127-0.0001959 0.0001722 0.0001244
           dy -0.0002083-0.0000167-0.0000530 0.0000819-0.0000998-0.0000515
           dz  0.0000476 0.0000117-0.0000089 0.0001145-0.0000900-0.0000698
  29 h     dx -0.0057141 0.0200780-0.0162075 0.0001555-0.0000907-0.0001550
           dy  0.0043728-0.0076922 0.0046927-0.0000531-0.0000105 0.0000706
           dz  0.0001282-0.0073416 0.0067748-0.0000239 0.0000441 0.0000510
  30 h     dx  0.0011391 0.0105263 0.0247172-0.0002558 0.0000544 0.0001940
           dy  0.0006901-0.0060422-0.0102687 0.0000597-0.0000422-0.0000263
           dz -0.0001285-0.0004571-0.0015206 0.0000869-0.0000166-0.0000348

   ATOM             19 c                          20 n 
                  dx        dy        dz        dx        dy        dz
  19 c     dx  0.5024126
           dy  0.0464137 0.6413821
           dz  0.1830832 0.0655491 0.2943685
  20 n     dx -0.1174132-0.0660462-0.0510309 0.3101944
           dy -0.0626672-0.2909770-0.0681850-0.0315187 0.5735241
           dz -0.0553753-0.0784852-0.1091515 0.0898840 0.1078533 0.1577916
  21 c     dx  0.0311880 0.0355995 0.0270422-0.1524075 0.0728058-0.0238713
           dy -0.0044352-0.0867794-0.0197195 0.0974686-0.1998463-0.0031537
           dz  0.0157941-0.0079497 0.0090301-0.0135929-0.0157379-0.0733157
  22 h     dx  0.0007367 0.0058136-0.0027056 0.0064356 0.0222985 0.0121799
           dy  0.0028543-0.0002935-0.0018936 0.0025816-0.0294740-0.0065867
           dz -0.0030183-0.0009174 0.0072086 0.0010599 0.0046696-0.0013585
  23 h     dx -0.0044250 0.0012670-0.0075075 0.0006265-0.0008184 0.0005366
           dy  0.0106149 0.0015880 0.0282663-0.0014417 0.0023365-0.0010202
           dz -0.0018150-0.0010027-0.0050143 0.0007855-0.0010192 0.0004688
  24 h     dx -0.0041574 0.0041540 0.0022210-0.0004906-0.0009321 0.0002026
           dy  0.0200179-0.0093760-0.0169438 0.0009336-0.0001023 0.0004161
           dz -0.0082124 0.0026606 0.0068452 0.0000202-0.0006876 0.0005783
  25 h     dx  0.0000653 0.0001495-0.0000598 0.0000247 0.0000481-0.0000174
           dy -0.0000103-0.0002540 0.0000437-0.0000696 0.0002320-0.0001034
           dz -0.0002184 0.0002776-0.0000674 0.0000650 0.0000588-0.0000104
  26 h     dx -0.0001584 0.0000023 0.0000937 0.0000044 0.0000563 0.0000142
           dy  0.0000441-0.0000017-0.0000124-0.0000776 0.0000421-0.0000644
           dz -0.0002346 0.0000263 0.0000867 0.0001450 0.0000312 0.0000812
  27 h     dx -0.0001473 0.0001392-0.0000916 0.0000110-0.0001351 0.0000061
           dy  0.0001003-0.0001016 0.0000426-0.0000897 0.0001245-0.0000533
           dz  0.0000533-0.0000444 0.0000553 0.0000039-0.0000423 0.0000097
  28 h     dx  0.0000282-0.0001813 0.0000037-0.0000390-0.0000444-0.0000568
           dy  0.0000510 0.0000078 0.0000387-0.0000631 0.0000738 0.0000015
           dz -0.0000133 0.0000271-0.0000337 0.0000292-0.0000326 0.0000212
  29 h     dx -0.0003783 0.0002892 0.0002146-0.0003113 0.0000094 0.0010594
           dy -0.0000061 0.0002260-0.0000009 0.0004172-0.0004235-0.0003476
           dz  0.0003779-0.0000924 0.0000251-0.0000819-0.0001692-0.0002989
  30 h     dx -0.0002105-0.0002746 0.0001764 0.0001437 0.0005888-0.0006838
           dy -0.0000991 0.0002656 0.0000532 0.0002126-0.0005426 0.0003228
           dz  0.0003788 0.0004217 0.0002062 0.0002459-0.0007895 0.0001829

   ATOM             21 c                          22 h 
                  dx        dy        dz        dx        dy        dz
  21 c     dx  0.5432606
           dy  0.0239485 0.6193843
           dz  0.1466496 0.1615637 0.2516262
  22 h     dx -0.0910327-0.0830296-0.0484549 0.0910388
           dy -0.0834441-0.2302478-0.0992866 0.0774144 0.2561946
           dz -0.0425292-0.1019698-0.0903054 0.0539470 0.1086777 0.0822824
  23 h     dx -0.0004012 0.0001403 0.0001652-0.0000240 0.0000062 0.0000489
           dy  0.0011858 0.0002025-0.0007182 0.0000360 0.0000107-0.0001031
           dz -0.0009768 0.0003885 0.0002288-0.0000380 0.0000173 0.0000360
  24 h     dx -0.0004293 0.0006154-0.0003972-0.0000107 0.0000161-0.0000044
           dy -0.0005048-0.0008930 0.0014515-0.0000283-0.0000721 0.0000646
           dz -0.0000879 0.0003315-0.0004298 0.0000115-0.0000030-0.0000066
  25 h     dx -0.0000316 0.0000148-0.0000014-0.0000044 0.0000053 0.0000107
           dy  0.0001255-0.0000981 0.0000369-0.0000005-0.0000037-0.0000062
           dz -0.0000106 0.0000199 0.0000368 0.0000052 0.0000128 0.0000036
  26 h     dx  0.0000307 0.0000505-0.0000644-0.0000045-0.0000022-0.0000116
           dy  0.0000092 0.0001131 0.0001202 0.0000015-0.0000052-0.0000011
           dz -0.0000706-0.0000035-0.0001502 0.0000014 0.0000140 0.0000049
  27 h     dx -0.0000096 0.0000055-0.0000115 0.0000032-0.0000071-0.0000098
           dy  0.0000929 0.0000189 0.0000818-0.0000029-0.0000018-0.0000015
           dz -0.0000653 0.0000111-0.0000214-0.0000026 0.0000002-0.0000017
  28 h     dx -0.0000394-0.0000097-0.0000283 0.0000025-0.0000086 0.0000076
           dy  0.0000582-0.0000558 0.0000139-0.0000259 0.0000021-0.0000094
           dz -0.0000437 0.0000191-0.0000054 0.0000024 0.0000033 0.0000062
  29 h     dx -0.0006644 0.0010370 0.0007961-0.0000192 0.0000873-0.0005785
           dy -0.0008463-0.0003652-0.0001533-0.0000393-0.0000591 0.0001992
           dz  0.0000567 0.0004928 0.0004723-0.0000554 0.0000418 0.0000791
  30 h     dx  0.0016878 0.0000425 0.0006643-0.0004110-0.0003862-0.0000703
           dy -0.0012922 0.0006751 0.0000753 0.0002705 0.0001272-0.0001311
           dz -0.0011646 0.0001175 0.0002426 0.0003804 0.0000591-0.0001206

   ATOM             23 h                          24 h 
                  dx        dy        dz        dx        dy        dz
  23 h     dx  0.0807211
           dy  0.0021642 0.0457586
           dz  0.0932604 0.0038897 0.2952980
  24 h     dx  0.0090805-0.0038492-0.0063115 0.1898153
           dy -0.0000229 0.0005862 0.0001059-0.0669395 0.0749490
           dz  0.0219880-0.0101274-0.0160478-0.1197024 0.0551777 0.1412624
  25 h     dx  0.0000341 0.0000882-0.0001651-0.0000584-0.0000337 0.0000767
           dy -0.0005440-0.0003634-0.0002890 0.0001750 0.0000950 0.0000189
           dz  0.0000417 0.0001715-0.0000760 0.0004333 0.0004036-0.0000367
  26 h     dx -0.0000119 0.0000023 0.0000003-0.0000032 0.0000008 0.0000020
           dy  0.0000175 0.0000182-0.0000048-0.0000016 0.0000055-0.0000031
           dz  0.0000065 0.0000105 0.0000053 0.0000064-0.0000090-0.0000021
  27 h     dx -0.0000391-0.0000862 0.0000025 0.0000049-0.0000137 0.0000012
           dy  0.0000219 0.0000447 0.0000065 0.0000237 0.0000347 0.0000043
           dz  0.0000155 0.0000192-0.0000047-0.0000041 0.0000020-0.0000006
  28 h     dx -0.0000091-0.0000118 0.0000020-0.0000407-0.0000530-0.0000072
           dy  0.0000013 0.0000447-0.0000031 0.0000412 0.0000454-0.0000025
           dz -0.0000061-0.0000064 0.0000011 0.0000195 0.0000283 0.0000013
  29 h     dx  0.0000115 0.0000800-0.0000448 0.0000292 0.0000278-0.0000093
           dy -0.0000060-0.0000155 0.0000070-0.0000100 0.0000067-0.0000023
           dz  0.0000037-0.0000210 0.0000098-0.0000100-0.0000078 0.0000029
  30 h     dx  0.0000277 0.0000325-0.0000012-0.0000112 0.0001008-0.0000342
           dy  0.0000180 0.0000081-0.0000067-0.0000014 0.0000080 0.0000038
           dz -0.0000064-0.0000043 0.0000012-0.0000054-0.0000244 0.0000042

   ATOM             25 h                          26 h 
                  dx        dy        dz        dx        dy        dz
  25 h     dx  0.1533756
           dy -0.0942014 0.1458035
           dz  0.0912533-0.1138139 0.1304581
  26 h     dx -0.0000063-0.0000013-0.0000097 0.2219228
           dy -0.0000020-0.0000059-0.0000047 0.0157934 0.0633841
           dz  0.0000094-0.0000082 0.0000078-0.1539395-0.0071709 0.1444072
  27 h     dx -0.0000504 0.0000641 0.0000459-0.0000003 0.0000317 0.0001337
           dy  0.0000046-0.0000381-0.0000207-0.0002175-0.0001123-0.0005520
           dz -0.0000088-0.0000022-0.0000006 0.0000297-0.0000582 0.0001129
  28 h     dx -0.0000173-0.0000654-0.0000997-0.0000792 0.0000260 0.0001293
           dy -0.0000019 0.0000119 0.0000137 0.0005451-0.0002165-0.0001042
           dz  0.0000362 0.0000322 0.0000286-0.0003073 0.0003155-0.0001173
  29 h     dx  0.0000036 0.0000031 0.0000025-0.0000711-0.0000028-0.0000396
           dy  0.0000069 0.0000004 0.0000092-0.0000512-0.0000214-0.0000240
           dz -0.0000005 0.0000017-0.0000036 0.0000158 0.0000144 0.0000036
  30 h     dx  0.0000168 0.0000139-0.0000168 0.0000358-0.0000123 0.0000673
           dy  0.0000008-0.0000124 0.0000028 0.0000394-0.0000280 0.0000922
           dz  0.0000012 0.0000007 0.0000080-0.0000002-0.0000333 0.0000148

   ATOM             27 h                          28 h 
                  dx        dy        dz        dx        dy        dz
  27 h     dx  0.1647656
           dy  0.1083039 0.1412688
           dz  0.0832561 0.0742615 0.1004227
  28 h     dx  0.0039052 0.0017751-0.0210695 0.0504313
           dy  0.0029875 0.0021818-0.0185708 0.0028716 0.0483976
           dz  0.0021068 0.0009921-0.0124564-0.0385112-0.0233355 0.3229794
  29 h     dx  0.0000233-0.0000326 0.0000103 0.0000521-0.0000710 0.0000202
           dy  0.0000039 0.0000154-0.0000072 0.0000353-0.0000501 0.0000046
           dz  0.0000022-0.0000008 0.0000005-0.0000007-0.0000098-0.0000014
  30 h     dx  0.0000298-0.0000788 0.0000206 0.0000364-0.0000269 0.0000026
           dy  0.0000167-0.0000286 0.0000143-0.0000143 0.0000014 0.0000000
           dz  0.0000109-0.0000223 0.0000044-0.0000005 0.0000094-0.0000017

   ATOM             29 h                          30 h 
                  dx        dy        dz        dx        dy        dz
  29 h     dx  0.0553420
           dy -0.0414020 0.1942182
           dz  0.0355251-0.1307012 0.1567019
  30 h     dx  0.0004196-0.0025516-0.0056928 0.0462121
           dy  0.0005900 0.0102682 0.0220473 0.0015349 0.0875648
           dz -0.0006010-0.0077229-0.0170584 0.0045868 0.1015128 0.2878213
 

   *** projected hessian written onto $hessian (projected), file=<hessian> ***

 dipole moment in principle axis system (a.u.) :
    -0.0011492565    -0.0002563053    -0.0643225251
 norm :  6.433330173557740E-002

 rotational constants b for rotations around axis of inertia
 and optical intensities for (1 <-- 0) transition

   b   :     0.0156213673     0.0156191631     0.0084534695   (cm**(-1))
   b   :         468.3168         468.2507         253.4286     (MHz)
  int. :     0.0000013208     0.0000000657     0.0041373872     (a.u.)

   x   :     0.9519543617     0.2956514838     0.0798316567
   y   :    -0.3032451744     0.9464200440     0.1110471276
   z   :    -0.0427230320    -0.1299203621     0.9906035746

   ***  normal modes written onto $vibrational normal modes, file=<vib_normal_modes>  ***

 keyword $vibrational reduced masses missing in file <control>


   ***  vibrational spectroscopic data written onto$vibrational spectrum   
        file=<vibspectrum>  ***

          ---------------------------------------------------
          NORMAL MODES and VIBRATIONAL FREQUENCIES (cm**(-1))
          ---------------------------------------------------

 imaginary wave numbers indicate a negative curvature of the energy surface.
 zero frequency modes have no physical meaning except being generators of
 translations and rotations. each vibrational normal mode - given in terms of
 cartesian displacement vectors of all atoms - has been normalized to unity.
 to obtain mass-weigthed normal coordinates in a.u. divide the tabulated
 modes by sqrt(reduced mass * 1822.88853).
 band intensities or cross sections refer to independent non-degenerate normal
 modes, that is, the intensities of degenerate modes have yet to be added.
 dDIP/dQ is the normal mode derivative of the dipole moment.


       mode               1        2        3        4        5        6

     frequency           0.00     0.00     0.00     0.00     0.00     0.00

     symmetry                                                             

        IR                -        -        -        -        -        - 
|dDIP/dQ|   (a.u.)     0.0000   0.0000   0.0000   0.0000   0.0000   0.0000
intensity (km/mol)       0.00     0.00     0.00     0.00     0.00     0.00
intensity (  %   )       0.00     0.00     0.00     0.00     0.00     0.00
 
       RAMAN              -        -        -        -        -        - 
 
  1   c           x   0.01309 -0.02994  0.03149  0.15300  0.05349  0.11176
                  y  -0.03906  0.12257 -0.07858 -0.00859  0.09907 -0.00638
                  z   0.02009 -0.09569  0.02721  0.04645  0.07973 -0.16753
  2   c           x   0.01031  0.00882  0.07618  0.12272  0.05988  0.09120
                  y  -0.04345  0.15416 -0.04186 -0.03517  0.10501 -0.02234
                  z  -0.06500 -0.11313  0.01887 -0.01695  0.10710 -0.12614
  3   c           x   0.01328 -0.01741  0.04105  0.15291  0.05010  0.10696
                  y  -0.04337  0.07810 -0.13444  0.02977  0.08837  0.02267
                  z   0.01371 -0.03406  0.02948  0.12350  0.01669 -0.16669
  4   c           x   0.01124  0.03677  0.09530  0.12687  0.04986  0.08132
                  y  -0.05712  0.06537 -0.15543  0.04191  0.08252  0.03883
                  z  -0.07716  0.01156  0.02353  0.13928 -0.02050 -0.12479
  5   c           x   0.00854  0.07426  0.13860  0.09744  0.05611  0.06140
                  y  -0.06128  0.09611 -0.11967  0.01605  0.08833  0.02322
                  z  -0.15964 -0.00553  0.01543  0.07760  0.00622 -0.08466
  6   c           x   0.00832  0.06148  0.12891  0.09742  0.05964  0.06628
                  y  -0.05683  0.14192 -0.06211 -0.02348  0.09936 -0.00671
                  z  -0.15335 -0.06896  0.01308 -0.00183  0.07112 -0.08539
  7   c           x   0.00987 -0.07467  0.00857  0.13116  0.07808  0.12468
                  y   0.01249  0.03279 -0.16731  0.06331  0.09087  0.01451
                  z   0.07406 -0.00997  0.03593  0.18370 -0.01484 -0.19647
  8   c           x   0.00725 -0.14185 -0.03577  0.11798  0.10398  0.14783
                  y   0.06427  0.03757 -0.14083  0.05446  0.10343 -0.02078
                  z   0.14461 -0.05299  0.04020  0.16156  0.02190 -0.22873
  9   n           x   0.00661 -0.15526 -0.04407  0.11426  0.10975  0.15225
                  y   0.07211  0.08023 -0.08575  0.01731  0.11452 -0.05096
                  z   0.14874 -0.11289  0.03782  0.08569  0.08339 -0.22856
 10   c           x   0.00899 -0.10108 -0.00952  0.12728  0.08753  0.13403
                  y   0.02507  0.12070 -0.05526 -0.01291  0.11292 -0.04546
                  z   0.08474 -0.13272  0.03124  0.02928  0.11092 -0.19718
 11   c           x   0.00517 -0.10495  0.00429  0.09409  0.10727  0.12920
                  y   0.04888  0.16279  0.00551 -0.05105  0.12744 -0.08532
                  z   0.04817 -0.18665  0.02552 -0.05833  0.17070 -0.17772
 12   c           x   0.00473 -0.03491  0.06459  0.07992  0.09599  0.09976
                  y   0.01431  0.17522  0.00684 -0.05847  0.12248 -0.07102
                  z  -0.05640 -0.16322  0.01733 -0.07792  0.15795 -0.12846
 13   c           x  -0.00206 -0.01707  0.10974  0.01727  0.12634  0.08103
                  y   0.04878  0.18695  0.03488 -0.07167  0.13271 -0.09957
                  z  -0.14262 -0.16779  0.00948 -0.12514  0.17214 -0.08699
 14   n           x  -0.00438  0.03231  0.16123 -0.01051  0.12840  0.05689
                  y   0.03944  0.17304  0.01422 -0.05893  0.12759 -0.08547
                  z  -0.22891 -0.12338  0.00388 -0.10873  0.13569 -0.04723
 15   c           x   0.00035  0.06801  0.16989  0.02603  0.09802  0.05021
                  y  -0.00835  0.14875 -0.03443 -0.03379  0.11164 -0.04114
                  z  -0.23287 -0.07376  0.00581 -0.04614  0.08481 -0.04712
 16   c           x  -0.00347  0.10255  0.21572 -0.01284  0.11040  0.02962
                  y   0.00178  0.11138 -0.07589 -0.00281  0.10570 -0.02535
                  z  -0.30637 -0.00868  0.00229  0.00326  0.02558 -0.01424
 17   c           x   0.00104  0.09219  0.18694  0.02862  0.08991  0.04146
                  y  -0.01954  0.07332 -0.13076  0.03166  0.09262  0.01057
                  z  -0.24467  0.03242  0.00965  0.08622 -0.02369 -0.04528
 18   c           x   0.00669 -0.05159  0.04198  0.09965  0.08947  0.10988
                  y   0.02507 -0.01359 -0.21877  0.10175  0.08351  0.03410
                  z   0.02410  0.05986  0.03472  0.25053 -0.08156 -0.17504
 19   c           x   0.00604  0.01433  0.09980  0.08421  0.08003  0.08177
                  y  -0.00693  0.01111 -0.20147  0.08361  0.08180  0.03952
                  z  -0.07914  0.06591  0.02585  0.20898 -0.07649 -0.12579
 20   n           x  -0.00035  0.03620  0.14651  0.02451  0.10762  0.06207
                  y   0.02550 -0.01124 -0.21574  0.09971  0.08412  0.03244
                  z  -0.16027  0.10550  0.02048  0.22159 -0.10852 -0.08834
 21   c           x  -0.00262  0.07566  0.18951 -0.00136  0.11133  0.04208
                  y   0.01745  0.01949 -0.18153  0.07421  0.08906  0.01927
                  z  -0.24175  0.08951  0.01253  0.16180 -0.08304 -0.04873
 22   h           x  -0.00845  0.08768  0.22552 -0.05464  0.13801  0.02735
                  y   0.05123 -0.00186 -0.19404  0.08933  0.09189  0.01076
                  z  -0.30445  0.12242  0.00849  0.17457 -0.11020 -0.01987
 23   h           x  -0.00083 -0.09407  0.04006  0.03955  0.13498  0.11467
                  y   0.09918 -0.04627 -0.22899  0.12283  0.09283  0.00702
                  z   0.02566  0.07658  0.03562  0.27302 -0.09903 -0.17639
 24   h           x   0.01242 -0.03681  0.02872  0.14816  0.05811  0.11346
                  y  -0.01914 -0.02892 -0.25508  0.11892  0.07031  0.07089
                  z   0.05626  0.08688  0.03881  0.30106 -0.11304 -0.19142
 25   h           x   0.00453 -0.18981 -0.06357  0.10096  0.12674  0.16290
                  y   0.10978  0.00449 -0.16293  0.07850  0.10631 -0.02970
                  z   0.19528 -0.03881  0.04535  0.20425  0.00168 -0.25352
 26   h           x  -0.00674 -0.04781  0.10497 -0.01950  0.15549  0.08577
                  y   0.09420  0.20362  0.07331 -0.09009  0.14647 -0.13791
                  z  -0.14352 -0.20529  0.00768 -0.17431  0.21101 -0.08521
 27   h           x   0.01054 -0.10668 -0.02111  0.14183  0.08088  0.13894
                  y   0.01172  0.19714  0.03250 -0.07696  0.12670 -0.08238
                  z   0.08973 -0.22987  0.02721 -0.09460  0.21084 -0.19609
 28   h           x  -0.00245 -0.15374 -0.00241  0.03400  0.15451  0.13640
                  y   0.12557  0.14755  0.01756 -0.04510  0.14117 -0.12435
                  z   0.05394 -0.19487  0.02565 -0.06624  0.17857 -0.18019
 29   h           x  -0.00060  0.16000  0.25076  0.00412  0.08505  0.01091
                  y  -0.04871  0.13230 -0.07058 -0.01601  0.09905 -0.00610
[...]
                  z  -0.07210  0.04877  0.03982  0.15677  0.05874  0.03282
 13   c           x   0.01060  0.01883 -0.01460  0.08861  0.03200  0.00225
                  y  -0.11871  0.06275  0.12787 -0.17622 -0.00832  0.11928
                  z  -0.01503 -0.00964  0.01750 -0.07788 -0.02431  0.00521
 14   n           x  -0.05746 -0.03535  0.03148 -0.15399 -0.06082 -0.01007
                  y   0.01133 -0.03391 -0.01663 -0.01347 -0.02628 -0.05058
                  z   0.04258  0.01864 -0.02451  0.11157  0.03894 -0.00796
 15   c           x   0.05959  0.01739 -0.04389  0.28550  0.07577 -0.03097
                  y   0.02887  0.02746 -0.02278 -0.09620  0.00040  0.11333
                  z  -0.03100 -0.00094  0.02390 -0.21346 -0.05284  0.06193
 16   c           x  -0.01789 -0.00344  0.01442  0.00059 -0.04155  0.01145
                  y   0.00164 -0.00102 -0.00356  0.00604 -0.00267 -0.00059
                  z  -0.00053 -0.00569 -0.01052  0.02541  0.00091  0.00125
 17   c           x  -0.01289 -0.02213 -0.06773 -0.19346  0.20001 -0.06874
                  y   0.12210  0.06690  0.09287 -0.12181  0.08154  0.08106
                  z   0.05043  0.02269  0.02248 -0.09337  0.08608  0.01427
 18   c           x  -0.00405 -0.00880 -0.01044 -0.01757 -0.00428 -0.00598
                  y  -0.00512 -0.01368 -0.01314 -0.03162 -0.01592 -0.00867
                  z  -0.00326  0.00718 -0.00745 -0.00552  0.02614  0.00334
 19   c           x   0.01641 -0.00322  0.00253  0.14215 -0.17807  0.11650
                  y   0.01048  0.07624  0.05537  0.18362 -0.17439 -0.01159
                  z   0.01220  0.01030  0.01218  0.10438 -0.11643  0.06504
 20   n           x  -0.02916 -0.02770 -0.03151 -0.03872  0.05283 -0.03934
                  y   0.01796 -0.07161 -0.02506 -0.14000  0.10466  0.02930
                  z  -0.00839 -0.02982 -0.01930 -0.05461  0.05275 -0.01512
 21   c           x   0.09110  0.07106  0.12232  0.11719 -0.15898  0.10326
                  y  -0.06331 -0.01387 -0.04676  0.02692  0.00667 -0.05750
                  z   0.01197  0.02024  0.02691  0.05044 -0.05470  0.01733
 22   h           x  -0.39243 -0.35246 -0.43373 -0.17011  0.24234 -0.22019
                  y   0.19338  0.21419  0.24916  0.18020 -0.20388  0.11558
                  z  -0.08290 -0.07109 -0.07906  0.00688  0.00477 -0.03636
 23   h           x  -0.02521  0.30326 -0.11024  0.00303  0.15661 -0.05274
                  y   0.03103  0.01118  0.03229  0.16310 -0.04184  0.06135
                  z   0.00342 -0.10447  0.02786 -0.01484 -0.03554  0.02063
 24   h           x  -0.01406  0.17969 -0.07053 -0.00770  0.04103 -0.04328
                  y   0.00146  0.02496 -0.03279  0.01025  0.01109  0.00465
                  z  -0.01909  0.21066 -0.06829 -0.01404  0.05714 -0.05440
 25   h           x   0.11979 -0.49844  0.42320  0.13356  0.35789  0.20468
                  y   0.03921 -0.28303  0.22404  0.06259  0.10341  0.12130
                  z  -0.03137  0.19356 -0.14524 -0.02758 -0.03035 -0.07237
 26   h           x   0.01392  0.02130 -0.01395  0.08161  0.03309  0.00339
                  y   0.59603 -0.18413 -0.49252  0.39210  0.04760 -0.25168
                  z   0.04595 -0.02496 -0.02683 -0.05647 -0.02229 -0.01351
 27   h           x  -0.05793  0.02359  0.00418  0.00088  0.01528  0.02394
                  y  -0.10398  0.05050  0.05835  0.02516  0.01217  0.02111
                  z   0.22729 -0.10268 -0.08285 -0.05019 -0.04511 -0.06114
 28   h           x  -0.14454  0.03370  0.08180  0.02353  0.17865  0.07714
                  y  -0.25408  0.13529  0.08124  0.15243 -0.01355  0.01939
                  z  -0.03128  0.01667  0.00612  0.00319  0.00388  0.01450
 29   h           x   0.05335  0.03383  0.04865 -0.00993  0.01681  0.00486
                  y  -0.13599 -0.09479 -0.05415  0.03734 -0.00714 -0.04487
                  z  -0.17780 -0.12331 -0.07830  0.05617 -0.02096 -0.05228
 30   h           x   0.16038  0.07796  0.03540  0.03280  0.15406 -0.02299
                  y  -0.19765 -0.15549 -0.11116  0.17123 -0.00927 -0.07203
                  z   0.07505  0.05410  0.03275 -0.04680 -0.00035  0.03265

reduced mass(g/mol)     2.676    2.701    2.948    8.405    8.442    9.571


       mode              79       80       81       82       83       84

     frequency        1585.37  1635.51  1636.08  2990.02  2990.98  2991.48

     symmetry            a        a        a        a        a        a   

        IR               YES      YES      YES      YES      YES      YES
|dDIP/dQ|   (a.u.)     0.0023   0.0050   0.0050   0.0024   0.0024   0.0025
intensity (km/mol)       9.41    44.46    44.76     9.97    10.33    11.23
intensity (  %   )      19.94    94.23    94.87    21.13    21.89    23.81
 
       RAMAN             YES      YES      YES      YES      YES      YES
 
  1   c           x   0.00187  0.30540 -0.33789 -0.00015  0.00001 -0.00014
                  y   0.15258  0.15112  0.06638 -0.00002  0.00003 -0.00028
                  z  -0.10486 -0.11727  0.02718  0.00002 -0.00001  0.00031
  2   c           x  -0.20366 -0.20482  0.08639  0.00001  0.00006 -0.00041
                  y  -0.07257 -0.39136 -0.19186 -0.00001  0.00008 -0.00020
                  z   0.12879  0.14750 -0.01028  0.00001 -0.00006  0.00047
  3   c           x   0.18339 -0.33728  0.34518  0.00047  0.00002  0.00007
                  y  -0.13655 -0.15734 -0.06627 -0.00023 -0.00002  0.00001
                  z   0.10685  0.02210  0.06953  0.00040  0.00002  0.00001
  4   c           x  -0.14270  0.05170 -0.32409  0.00039 -0.00008  0.00000
                  y  -0.08655  0.19285  0.31988  0.00005  0.00012  0.00001
                  z  -0.06394  0.00591 -0.08077  0.00023  0.00000 -0.00001
  5   c           x   0.04036 -0.06523  0.31258 -0.00004 -0.00005 -0.00001
                  y   0.24093 -0.18844 -0.35347  0.00009 -0.00056 -0.00005
                  z   0.07601 -0.04100 -0.04858  0.00003 -0.00035 -0.00002
  6   c           x   0.12771  0.20292 -0.09478 -0.00002  0.00017  0.00007
                  y  -0.08771  0.40640  0.17751  0.00002 -0.00034  0.00011
                  z  -0.08394 -0.01571  0.04871  0.00000 -0.00024 -0.00004
  7   c           x  -0.08101  0.10215 -0.11816  0.00005  0.00000 -0.00009
                  y   0.18810  0.05032 -0.00881 -0.00044  0.00001 -0.00011
                  z  -0.16229 -0.00967 -0.02579  0.00016 -0.00001  0.00009
  8   c           x  -0.01061 -0.10330  0.09897  0.00051 -0.00003  0.00039
                  y  -0.08310 -0.05230  0.04802  0.00014  0.00001  0.00010
                  z   0.06539  0.03046 -0.02787 -0.00004 -0.00001 -0.00003
  9   n           x  -0.09130  0.09268 -0.09199 -0.00035  0.00001 -0.00028
                  y   0.08069 -0.02538  0.02349  0.00002 -0.00001  0.00026
                  z  -0.06971  0.01236 -0.01175  0.00006  0.00001 -0.00026
 10   c           x   0.05200 -0.11224  0.10217  0.00018 -0.00000  0.00005
                  y  -0.19651  0.00719 -0.04572 -0.00012  0.00001 -0.00025
                  z   0.17194  0.02500  0.01366  0.00008 -0.00000  0.00027
 11   c           x  -0.02529  0.00894  0.00229  0.00112 -0.00316  0.05490
                  y   0.03758 -0.00934  0.00107  0.00099 -0.00275  0.04795
                  z  -0.00813 -0.00237 -0.01332  0.00008 -0.00029  0.00555
 12   c           x   0.19144  0.04195 -0.01847 -0.00003  0.00008 -0.00040
                  y  -0.05094  0.14232  0.04788  0.00002 -0.00017  0.00018
                  z  -0.15163 -0.05001  0.01008  0.00001 -0.00007  0.00011
 13   c           x  -0.06256 -0.00805 -0.00157 -0.00003  0.00011 -0.00012
                  y   0.05525 -0.15923 -0.04607 -0.00003  0.00043 -0.00048
                  z   0.05042 -0.00308 -0.00125  0.00002 -0.00008  0.00009
 14   n           x   0.10985  0.08791  0.02572  0.00001 -0.00037  0.00016
                  y   0.02307  0.08629  0.02253  0.00002 -0.00008  0.00030
                  z  -0.07642 -0.03807 -0.01121 -0.00000  0.00029  0.00000
 15   c           x  -0.18472 -0.10461 -0.00942 -0.00001  0.00026 -0.00017
                  y   0.08493 -0.10340 -0.05228 -0.00001 -0.00013 -0.00008
                  z   0.15216  0.02273 -0.01551  0.00000 -0.00025  0.00008
 16   c           x   0.04559  0.00492  0.01106  0.00045 -0.01498 -0.00087
                  y   0.00164 -0.00300  0.00583 -0.00211  0.06810  0.00399
                  z  -0.00912 -0.00987  0.00729  0.00065 -0.02207 -0.00133
 17   c           x  -0.14873 -0.00449 -0.11469  0.00018 -0.00037 -0.00001
                  y  -0.17655  0.05680  0.10349 -0.00000 -0.00027 -0.00000
                  z  -0.11432  0.02406  0.01735  0.00007 -0.00004 -0.00000
 18   c           x  -0.02155  0.00277  0.00457 -0.06624 -0.00215  0.00127
                  y  -0.04291 -0.00581  0.00949  0.02541  0.00084 -0.00048
                  z   0.00133  0.01312  0.00273  0.01858  0.00064 -0.00039
 19   c           x   0.17329 -0.02003  0.05513  0.00024 -0.00002 -0.00001
                  y   0.15702 -0.04900 -0.13965  0.00021 -0.00021 -0.00001
                  z   0.12003 -0.01622  0.02019  0.00021 -0.00004 -0.00001
 20   n           x  -0.03681 -0.00918 -0.03054 -0.00013 -0.00018  0.00000
                  y  -0.12634  0.03385  0.12621 -0.00041  0.00029  0.00003
                  z  -0.05025  0.00291  0.01024 -0.00020 -0.00006  0.00001
 21   c           x   0.08407  0.03217  0.13707 -0.00030  0.00036  0.00003
                  y   0.03864 -0.02183 -0.08371  0.00031 -0.00036 -0.00000
                  z   0.04259  0.00425  0.02039  0.00001 -0.00001  0.00001
 22   h           x  -0.03669 -0.05552 -0.18702 -0.00042  0.00171 -0.00004
                  y   0.10054  0.03080  0.09187 -0.00028  0.00596  0.00001
                  z   0.03008 -0.01440 -0.01577 -0.00012  0.00287  0.00002
 23   h           x   0.08823  0.01044  0.01038  0.10736  0.00341 -0.00199
                  y   0.21851 -0.00246 -0.01873  0.01175  0.00034 -0.00023
                  z  -0.04292  0.01127 -0.00043  0.33311  0.01050 -0.00608
 24   h           x   0.02822 -0.01693  0.01592  0.67604  0.02194 -0.01285
                  y   0.04621 -0.00460  0.04486 -0.31238 -0.01007  0.00599
                  z   0.01430 -0.01812 -0.00319 -0.56208 -0.01822  0.01069
 25   h           x   0.11366  0.12099 -0.13057 -0.00439  0.00008  0.00020
                  y  -0.00707  0.08128 -0.07905  0.00363 -0.00015  0.00026
                  z   0.02984 -0.02977  0.04329 -0.00370  0.00009 -0.00003
 26   h           x  -0.05817 -0.00815 -0.00773  0.00044 -0.00054  0.00528
                  y  -0.07047  0.21335  0.04795  0.00004  0.00022  0.00112
                  z   0.05069  0.00171 -0.00739 -0.00031  0.00030 -0.00424
 27   h           x   0.02702  0.02451 -0.01866 -0.01277  0.03538 -0.61386
                  y  -0.04225 -0.03657  0.00729 -0.01137  0.03179 -0.55042
                  z   0.02332  0.01483  0.01642 -0.00890  0.02474 -0.42880
 28   h           x   0.14605 -0.01773  0.01733 -0.00073  0.00208 -0.03571
                  y  -0.18413  0.00556  0.00341 -0.00039  0.00106 -0.01868
                  z  -0.00202 -0.00654 -0.01122  0.00765 -0.02071  0.35436
 29   h           x  -0.04949  0.03623  0.02984 -0.00591  0.18826  0.01108
                  y   0.00456  0.01388 -0.00870  0.02129 -0.68400 -0.04000
                  z   0.02652  0.00258 -0.02074 -0.01873  0.60176  0.03519
 30   h           x  -0.23035 -0.00729 -0.00866  0.00032 -0.00925 -0.00054
                  y  -0.02965 -0.02083 -0.00039  0.00383 -0.12048 -0.00698
                  z   0.01007 -0.00145  0.01192  0.01061 -0.33199 -0.01914

reduced mass(g/mol)     9.781   11.214   11.222    1.067    1.067    1.067


       mode              85       86       87       88       89       90

     frequency        3064.83  3065.27  3065.58  3118.23  3118.30  3118.52

     symmetry            a        a        a        a        a        a   

        IR               YES      YES      YES      YES      YES      YES
|dDIP/dQ|   (a.u.)     0.0011   0.0012   0.0013   0.0048   0.0046   0.0026
intensity (km/mol)       2.26     2.40     2.98    40.51    37.51    11.82
intensity (  %   )       4.78     5.08     6.31    85.86    79.51    25.05
 
       RAMAN             YES      YES      YES      YES      YES      YES
 
  1   c           x   0.00011  0.00025  0.00002  0.00011 -0.00003  0.00001
                  y   0.00003  0.00005 -0.00000 -0.00002 -0.00007  0.00004
                  z  -0.00011  0.00005 -0.00001 -0.00002 -0.00002  0.00006
  2   c           x  -0.00000  0.00011 -0.00008 -0.00048  0.00038 -0.00035
                  y   0.00001  0.00035 -0.00007 -0.00013  0.00020 -0.00005
                  z  -0.00001 -0.00003  0.00007  0.00032 -0.00023  0.00011
  3   c           x   0.00035  0.00012 -0.00001 -0.00051 -0.00031  0.00022
                  y   0.00007 -0.00002  0.00000  0.00028  0.00031 -0.00020
                  z  -0.00005  0.00005  0.00001 -0.00025 -0.00020  0.00004
  4   c           x   0.00017 -0.00002  0.00010  0.00007  0.00002 -0.00004
                  y  -0.00020  0.00002 -0.00005 -0.00004 -0.00007 -0.00004
                  z  -0.00005 -0.00002  0.00010 -0.00001 -0.00001  0.00008
  5   c           x   0.00005 -0.00002  0.00024 -0.00010  0.00006  0.00014
                  y  -0.00014  0.00002 -0.00026 -0.00001  0.00049  0.00064
                  z  -0.00004  0.00001  0.00003 -0.00001  0.00020  0.00012
  6   c           x   0.00001  0.00003 -0.00007  0.00006 -0.00005  0.00004
                  y   0.00001  0.00014 -0.00022  0.00001 -0.00009 -0.00006
                  z   0.00002  0.00008  0.00010  0.00000 -0.00002  0.00007
  7   c           x   0.00071 -0.00006 -0.00002  0.00143  0.00094 -0.00070
                  y   0.00040  0.00010  0.00000  0.00179  0.00113 -0.00095
                  z   0.00026 -0.00009 -0.00001 -0.00119 -0.00073  0.00065
  8   c           x   0.00066 -0.00025 -0.00005  0.03616  0.02287 -0.01878
                  y  -0.00060 -0.00002  0.00002 -0.04124 -0.02612  0.02145
                  z   0.00074 -0.00005 -0.00003  0.03859  0.02442 -0.02005
  9   n           x  -0.00018 -0.00004  0.00001  0.00065  0.00040 -0.00033
                  y  -0.00001  0.00001  0.00000  0.00014  0.00008 -0.00009
                  z   0.00002 -0.00013 -0.00001 -0.00033 -0.00020  0.00018
 10   c           x   0.00006  0.00083  0.00005 -0.00117 -0.00080  0.00065
                  y  -0.00014 -0.00020 -0.00001  0.00055  0.00053 -0.00039
                  z   0.00010  0.00005  0.00001 -0.00025 -0.00020  0.00014
 11   c           x   0.00031  0.00742  0.00054  0.00028 -0.00022  0.00016
                  y   0.00042  0.00970  0.00068  0.00004 -0.00009  0.00008
                  z   0.00401  0.08979  0.00606 -0.00085  0.00086 -0.00059
 12   c           x  -0.00000 -0.00001  0.00012 -0.00065  0.00071 -0.00049
                  y   0.00003  0.00072 -0.00000  0.00194 -0.00194  0.00129
                  z  -0.00003 -0.00044 -0.00010  0.00052 -0.00059  0.00040
 13   c           x   0.00003  0.00084  0.00013  0.04315 -0.04406  0.02935
                  y   0.00000  0.00009  0.00022  0.00132 -0.00136  0.00088
                  z  -0.00003 -0.00081 -0.00013 -0.03371  0.03443 -0.02292
 14   n           x  -0.00000 -0.00008  0.00003  0.00017 -0.00016  0.00009
                  y  -0.00000 -0.00016 -0.00000  0.00056 -0.00059  0.00038
                  z  -0.00000  0.00003 -0.00013  0.00013 -0.00015  0.00010
 15   c           x  -0.00001  0.00016 -0.00057 -0.00096  0.00085 -0.00077
                  y  -0.00002 -0.00003 -0.00059 -0.00052  0.00056 -0.00033
                  z  -0.00001 -0.00010  0.00021  0.00038 -0.00036  0.00027
 16   c           x   0.00017 -0.00046  0.00679  0.00002 -0.00011 -0.00006
                  y   0.00031 -0.00073  0.01027 -0.00001 -0.00041 -0.00056
                  z   0.00229 -0.00615  0.08978 -0.00006 -0.00070 -0.00099
 17   c           x   0.00012 -0.00005  0.00062  0.00015  0.00188  0.00258
                  y   0.00008  0.00003 -0.00046  0.00002 -0.00025 -0.00026
                  z   0.00004  0.00003 -0.00037  0.00007  0.00051  0.00075
 18   c           x  -0.00807  0.00031  0.00020  0.00043  0.00029 -0.00025
                  y  -0.01023  0.00046  0.00030 -0.00012 -0.00011  0.00001
                  z  -0.08972  0.00385  0.00257  0.00097  0.00062 -0.00050
 19   c           x   0.00022  0.00000 -0.00013 -0.00010 -0.00003  0.00005
                  y  -0.00083  0.00004 -0.00007 -0.00002  0.00100  0.00149
                  z  -0.00003  0.00001 -0.00006  0.00001  0.00011  0.00013
 20   n           x   0.00001  0.00000 -0.00010  0.00004  0.00038  0.00054
                  y   0.00006 -0.00001  0.00015 -0.00003 -0.00036 -0.00047
                  z   0.00012 -0.00001 -0.00002  0.00002  0.00020  0.00029
 21   c           x  -0.00016  0.00003 -0.00034 -0.00160 -0.01926 -0.02658
                  y   0.00015  0.00004 -0.00095 -0.00350 -0.04175 -0.05752
                  z   0.00002  0.00003 -0.00060 -0.00182 -0.02171 -0.02991
 22   h           x  -0.00017 -0.00018  0.00385  0.01710  0.20504  0.28253
                  y   0.00024 -0.00066  0.01179  0.04063  0.48843  0.67320
                  z   0.00011 -0.00036  0.00634  0.02050  0.24652  0.33981
 23   h           x   0.33131 -0.01413 -0.00947 -0.00472 -0.00304  0.00269
                  y   0.01320 -0.00055 -0.00036 -0.00117 -0.00084  0.00053
                  z   0.87615 -0.03733 -0.02499 -0.01037 -0.00666  0.00591
 24   h           x  -0.25068  0.01084  0.00740 -0.00094 -0.00077  0.00078
                  y   0.11379 -0.00502 -0.00334 -0.00028 -0.00017 -0.00006
                  z   0.18864 -0.00821 -0.00556  0.00059  0.00049 -0.00053
 25   h           x  -0.00849  0.00028  0.00034 -0.43598 -0.27614  0.22667
                  y   0.00734 -0.00054 -0.00034  0.46204  0.29256 -0.24014
                  z  -0.00805  0.00045  0.00033 -0.43605 -0.27615  0.22669
 26   h           x  -0.00032 -0.01045 -0.00089 -0.49582  0.50609 -0.33722
                  y  -0.00006 -0.00173  0.00009 -0.03555  0.03625 -0.02422
                  z   0.00029  0.00898  0.00069  0.38611 -0.39410  0.26265
 27   h           x  -0.01013 -0.23062 -0.01577 -0.00013  0.00028 -0.00045
                  y  -0.00898 -0.20510 -0.01391 -0.00093  0.00090 -0.00084
                  z  -0.00629 -0.14319 -0.00980 -0.00027  0.00032 -0.00037
 28   h           x   0.00581  0.13028  0.00878 -0.00076  0.00098 -0.00071
                  y   0.00357  0.07998  0.00538 -0.00178  0.00177 -0.00125
                  z  -0.04116 -0.91977 -0.06188  0.00915 -0.00961  0.00680
 29   h           x  -0.00179  0.00460 -0.06816  0.00003 -0.00065 -0.00091
                  y   0.00644 -0.01746  0.25774 -0.00002  0.00034  0.00097
                  z  -0.00511  0.01397 -0.20620  0.00002 -0.00027 -0.00075
 30   h           x  -0.00038  0.00104 -0.01510  0.00001 -0.00090 -0.00114
                  y  -0.00938  0.02495 -0.36378  0.00035  0.00331  0.00501
                  z  -0.02222  0.05908 -0.86029  0.00067  0.00780  0.01150

reduced mass(g/mol)     1.099    1.099    1.099    1.091    1.091    1.091
 

         **************************************************************
         *                                                            *
         *  zero point VIBRATIONAL energy  :      0.2210028  Hartree  *
         *    SCF-energy                   :   -855.1002600           *
         *    SCF + E(vib0)                :   -854.8792571           *
         *                                                            *
         **************************************************************




 time elapsed for vibrational analysis     0.03 sec


    ------------------------------------------------------------------------
         total  cpu-time : 43 minutes and 30 seconds
         total wall-time : 43 minutes and 31 seconds
    ------------------------------------------------------------------------

   ****  force : all done  ****


    2018-03-19 22:47:01.018 

aoforce ended normally 
