[Molden Format]
[Title]
                                                                                
[Atoms] AU
 c     1    6 -.10474187350966E+01 -.27102571856799E+01 -.14998844334852E+01
 c     2    6 -.27794503770112E+01 -.61359438936994E+00 -.15514751563510E+01
 c     3    6 0.15482924524021E+01 -.22747498624062E+01 -.17135559819148E+01
 c     4    6 0.24803883784883E+01 0.24849571921814E+00 -.21163708659039E+01
 c     5    6 0.79382291767607E+00 0.22800311871072E+01 -.21633478360422E+01
 c     6    6 -.18808982146470E+01 0.18386997681464E+01 -.19430764407939E+01
 c     7    6 0.32843311869193E+01 -.37099304647020E+01 -.28692282696834E+00
 c     8    6 0.22311217167669E+01 -.57023928087219E+01 0.11366168756756E+01
 n     9    7 -.31522648026104E+00 -.60730607018083E+01 0.14427173545256E+01
 c    10    6 -.19086649227661E+01 -.45257153167550E+01 0.24627034642148E+00
 c    11    6 -.46639707247514E+01 -.38299492574189E+01 0.98707213210086E+00
 c    12    6 -.48495308659208E+01 -.10549144920722E+01 0.70438982742570E-01
 c    13    6 -.60373235762399E+01 0.11274487762916E+01 0.10365162810007E+01
 n    14    7 -.51047896857752E+01 0.35284295200172E+01 0.75148590585852E+00
 c    15    6 -.30015017984029E+01 0.38491027660179E+01 -.60503977894838E+00
 c    16    6 -.10271822393746E+01 0.60145645877682E+01 -.40933782683590E+00
 c    17    6 0.14610371893472E+01 0.46202446324737E+01 -.10734938074464E+01
 c    18    6 0.57344165109078E+01 -.21246024449332E+01 -.43616350383730E-01
 c    19    6 0.48113426996954E+01 0.53966160208706E+00 -.86379010858884E+00
 n    20    7 0.55941925691506E+01 0.27874642179566E+01 -.26951003896950E-01
 c    21    6 0.39664187996431E+01 0.47981414939739E+01 -.18011497855893E+00
 h    22    1 0.46720921704430E+01 0.65454881279753E+01 0.69557536079592E+00
 h    23    1 0.64766333252164E+01 -.20904897920152E+01 0.19083088965921E+01
 h    24    1 0.72739512065933E+01 -.28266015311800E+01 -.12833346521798E+01
 h    25    1 0.34270492501640E+01 -.69342842052463E+01 0.23072106151981E+01
 h    26    1 -.76714440846642E+01 0.98464386171822E+00 0.23122740808244E+01
 h    27    1 -.60584456365240E+01 -.50830605549561E+01 0.47055506475690E-01
 h    28    1 -.49535874657108E+01 -.40138268049716E+01 0.30473566291519E+01
 h    29    1 -.14557118387032E+01 0.75761642134149E+01 -.17422049184001E+01
 h    30    1 -.99994372756451E+00 0.68288493380704E+01 0.15136179993350E+01
[GTO]
    1 0
 s    5 1.00
 0.12384016938000E+04 0.55173650481097E-02
 0.18629004992000E+03 0.41088828555946E-01
 0.42251176346000E+02 0.18225382126490E+00
 0.11676557932000E+02 0.46828459437429E+00
 0.35930506482000E+01 0.44575817336002E+00
 s    1 1.00
 0.40245147363000E+00 0.10000000000000E+01
 s    1 1.00
 0.13090182668000E+00 0.10000000000000E+01
 p    3 1.00
 0.94680970621000E+01 0.56888332011037E-01
 0.20103545142000E+01 0.31294059336471E+00
 0.54771004707000E+00 0.76065016509135E+00
 p    1 1.00
 0.15268613795000E+00 0.10000000000000E+01
 d    1 1.00
 0.80000000000000E+00 0.10000000000000E+01
 
    2 0
 s    5 1.00
 0.12384016938000E+04 0.55173650481097E-02
 0.18629004992000E+03 0.41088828555946E-01
 0.42251176346000E+02 0.18225382126490E+00
 0.11676557932000E+02 0.46828459437429E+00
 0.35930506482000E+01 0.44575817336002E+00
 s    1 1.00
 0.40245147363000E+00 0.10000000000000E+01
 s    1 1.00
 0.13090182668000E+00 0.10000000000000E+01
 p    3 1.00
 0.94680970621000E+01 0.56888332011037E-01
 0.20103545142000E+01 0.31294059336471E+00
 0.54771004707000E+00 0.76065016509135E+00
 p    1 1.00
 0.15268613795000E+00 0.10000000000000E+01
 d    1 1.00
 0.80000000000000E+00 0.10000000000000E+01
 
    3 0
 s    5 1.00
 0.12384016938000E+04 0.55173650481097E-02
 0.18629004992000E+03 0.41088828555946E-01
 0.42251176346000E+02 0.18225382126490E+00
 0.11676557932000E+02 0.46828459437429E+00
 0.35930506482000E+01 0.44575817336002E+00
 s    1 1.00
 0.40245147363000E+00 0.10000000000000E+01
 s    1 1.00
 0.13090182668000E+00 0.10000000000000E+01
 p    3 1.00
 0.94680970621000E+01 0.56888332011037E-01
 0.20103545142000E+01 0.31294059336471E+00
 0.54771004707000E+00 0.76065016509135E+00
 p    1 1.00
 0.15268613795000E+00 0.10000000000000E+01
 d    1 1.00
 0.80000000000000E+00 0.10000000000000E+01
 
    4 0
 s    5 1.00
 0.12384016938000E+04 0.55173650481097E-02
 0.18629004992000E+03 0.41088828555946E-01
 0.42251176346000E+02 0.18225382126490E+00
 0.11676557932000E+02 0.46828459437429E+00
 0.35930506482000E+01 0.44575817336002E+00
 s    1 1.00
 0.40245147363000E+00 0.10000000000000E+01
 s    1 1.00
 0.13090182668000E+00 0.10000000000000E+01
 p    3 1.00
 0.94680970621000E+01 0.56888332011037E-01
 0.20103545142000E+01 0.31294059336471E+00
 0.54771004707000E+00 0.76065016509135E+00
 p    1 1.00
 0.15268613795000E+00 0.10000000000000E+01
 d    1 1.00
 0.80000000000000E+00 0.10000000000000E+01
 
    5 0
 s    5 1.00
 0.12384016938000E+04 0.55173650481097E-02
 0.18629004992000E+03 0.41088828555946E-01
 0.42251176346000E+02 0.18225382126490E+00
 0.11676557932000E+02 0.46828459437429E+00
 0.35930506482000E+01 0.44575817336002E+00
 s    1 1.00
 0.40245147363000E+00 0.10000000000000E+01
 s    1 1.00
 0.13090182668000E+00 0.10000000000000E+01
 p    3 1.00
 0.94680970621000E+01 0.56888332011037E-01
 0.20103545142000E+01 0.31294059336471E+00
 0.54771004707000E+00 0.76065016509135E+00
 p    1 1.00
 0.15268613795000E+00 0.10000000000000E+01
 d    1 1.00
 0.80000000000000E+00 0.10000000000000E+01
 
    6 0
 s    5 1.00
 0.12384016938000E+04 0.55173650481097E-02
 0.18629004992000E+03 0.41088828555946E-01
 0.42251176346000E+02 0.18225382126490E+00
 0.11676557932000E+02 0.46828459437429E+00
 0.35930506482000E+01 0.44575817336002E+00
 s    1 1.00
 0.40245147363000E+00 0.10000000000000E+01
 s    1 1.00
 0.13090182668000E+00 0.10000000000000E+01
 p    3 1.00
 0.94680970621000E+01 0.56888332011037E-01
 0.20103545142000E+01 0.31294059336471E+00
 0.54771004707000E+00 0.76065016509135E+00
 p    1 1.00
 0.15268613795000E+00 0.10000000000000E+01
 d    1 1.00
 0.80000000000000E+00 0.10000000000000E+01
 
    7 0
 s    5 1.00
 0.12384016938000E+04 0.55173650481097E-02
 0.18629004992000E+03 0.41088828555946E-01
 0.42251176346000E+02 0.18225382126490E+00
 0.11676557932000E+02 0.46828459437429E+00
 0.35930506482000E+01 0.44575817336002E+00
 s    1 1.00
 0.40245147363000E+00 0.10000000000000E+01
 s    1 1.00
 0.13090182668000E+00 0.10000000000000E+01
 p    3 1.00
 0.94680970621000E+01 0.56888332011037E-01
 0.20103545142000E+01 0.31294059336471E+00
 0.54771004707000E+00 0.76065016509135E+00
 p    1 1.00
 0.15268613795000E+00 0.10000000000000E+01
 d    1 1.00
 0.80000000000000E+00 0.10000000000000E+01
 
    8 0
 s    5 1.00
 0.12384016938000E+04 0.55173650481097E-02
 0.18629004992000E+03 0.41088828555946E-01
 0.42251176346000E+02 0.18225382126490E+00
 0.11676557932000E+02 0.46828459437429E+00
 0.35930506482000E+01 0.44575817336002E+00
 s    1 1.00
 0.40245147363000E+00 0.10000000000000E+01
 s    1 1.00
 0.13090182668000E+00 0.10000000000000E+01
 p    3 1.00
 0.94680970621000E+01 0.56888332011037E-01
 0.20103545142000E+01 0.31294059336471E+00
 0.54771004707000E+00 0.76065016509135E+00
 p    1 1.00
 0.15268613795000E+00 0.10000000000000E+01
 d    1 1.00
 0.80000000000000E+00 0.10000000000000E+01
 
    9 0
 s    5 1.00
 0.17128415853000E+04 -.54477995804909E-02
 0.25764812677000E+03 -.40627174632423E-01
 0.58458245853000E+02 -.18111962250584E+00
 0.16198367905000E+02 -.46843975563173E+00
 0.50052600809000E+01 -.44616846289231E+00
 s    1 1.00
 0.58731856571000E+00 0.10000000000000E+01
 s    1 1.00
 0.18764592253000E+00 0.10000000000000E+01
 p    3 1.00
 0.13571470233000E+02 -.58848116969522E-01
 0.29257372874000E+01 -.32024624762471E+00
 0.79927750754000E+00 -.75328226520436E+00
 p    1 1.00
 0.21954348034000E+00 0.10000000000000E+01
 d    1 1.00
 0.10000000000000E+01 0.10000000000000E+01
 
   10 0
 s    5 1.00
 0.12384016938000E+04 0.55173650481097E-02
 0.18629004992000E+03 0.41088828555946E-01
 0.42251176346000E+02 0.18225382126490E+00
 0.11676557932000E+02 0.46828459437429E+00
 0.35930506482000E+01 0.44575817336002E+00
 s    1 1.00
 0.40245147363000E+00 0.10000000000000E+01
 s    1 1.00
 0.13090182668000E+00 0.10000000000000E+01
 p    3 1.00
 0.94680970621000E+01 0.56888332011037E-01
 0.20103545142000E+01 0.31294059336471E+00
 0.54771004707000E+00 0.76065016509135E+00
 p    1 1.00
 0.15268613795000E+00 0.10000000000000E+01
 d    1 1.00
 0.80000000000000E+00 0.10000000000000E+01
 
   11 0
 s    5 1.00
 0.12384016938000E+04 0.55173650481097E-02
 0.18629004992000E+03 0.41088828555946E-01
 0.42251176346000E+02 0.18225382126490E+00
 0.11676557932000E+02 0.46828459437429E+00
 0.35930506482000E+01 0.44575817336002E+00
 s    1 1.00
 0.40245147363000E+00 0.10000000000000E+01
 s    1 1.00
 0.13090182668000E+00 0.10000000000000E+01
 p    3 1.00
 0.94680970621000E+01 0.56888332011037E-01
 0.20103545142000E+01 0.31294059336471E+00
 0.54771004707000E+00 0.76065016509135E+00
 p    1 1.00
 0.15268613795000E+00 0.10000000000000E+01
 d    1 1.00
 0.80000000000000E+00 0.10000000000000E+01
 
   12 0
 s    5 1.00
 0.12384016938000E+04 0.55173650481097E-02
 0.18629004992000E+03 0.41088828555946E-01
 0.42251176346000E+02 0.18225382126490E+00
 0.11676557932000E+02 0.46828459437429E+00
 0.35930506482000E+01 0.44575817336002E+00
 s    1 1.00
 0.40245147363000E+00 0.10000000000000E+01
 s    1 1.00
 0.13090182668000E+00 0.10000000000000E+01
 p    3 1.00
 0.94680970621000E+01 0.56888332011037E-01
 0.20103545142000E+01 0.31294059336471E+00
 0.54771004707000E+00 0.76065016509135E+00
 p    1 1.00
 0.15268613795000E+00 0.10000000000000E+01
 d    1 1.00
 0.80000000000000E+00 0.10000000000000E+01
 
   13 0
 s    5 1.00
 0.12384016938000E+04 0.55173650481097E-02
 0.18629004992000E+03 0.41088828555946E-01
 0.42251176346000E+02 0.18225382126490E+00
 0.11676557932000E+02 0.46828459437429E+00
 0.35930506482000E+01 0.44575817336002E+00
 s    1 1.00
 0.40245147363000E+00 0.10000000000000E+01
 s    1 1.00
 0.13090182668000E+00 0.10000000000000E+01
 p    3 1.00
 0.94680970621000E+01 0.56888332011037E-01
 0.20103545142000E+01 0.31294059336471E+00
 0.54771004707000E+00 0.76065016509135E+00
 p    1 1.00
 0.15268613795000E+00 0.10000000000000E+01
 d    1 1.00
 0.80000000000000E+00 0.10000000000000E+01
 
   14 0
 s    5 1.00
 0.17128415853000E+04 -.54477995804909E-02
 0.25764812677000E+03 -.40627174632423E-01
 0.58458245853000E+02 -.18111962250584E+00
 0.16198367905000E+02 -.46843975563173E+00
 0.50052600809000E+01 -.44616846289231E+00
 s    1 1.00
 0.58731856571000E+00 0.10000000000000E+01
 s    1 1.00
 0.18764592253000E+00 0.10000000000000E+01
 p    3 1.00
 0.13571470233000E+02 -.58848116969522E-01
 0.29257372874000E+01 -.32024624762471E+00
 0.79927750754000E+00 -.75328226520436E+00
 p    1 1.00
 0.21954348034000E+00 0.10000000000000E+01
 d    1 1.00
 0.10000000000000E+01 0.10000000000000E+01
 
   15 0
 s    5 1.00
 0.12384016938000E+04 0.55173650481097E-02
 0.18629004992000E+03 0.41088828555946E-01
 0.42251176346000E+02 0.18225382126490E+00
 0.11676557932000E+02 0.46828459437429E+00
 0.35930506482000E+01 0.44575817336002E+00
 s    1 1.00
 0.40245147363000E+00 0.10000000000000E+01
 s    1 1.00
 0.13090182668000E+00 0.10000000000000E+01
 p    3 1.00
 0.94680970621000E+01 0.56888332011037E-01
 0.20103545142000E+01 0.31294059336471E+00
 0.54771004707000E+00 0.76065016509135E+00
 p    1 1.00
 0.15268613795000E+00 0.10000000000000E+01
 d    1 1.00
 0.80000000000000E+00 0.10000000000000E+01
 
   16 0
 s    5 1.00
 0.12384016938000E+04 0.55173650481097E-02
 0.18629004992000E+03 0.41088828555946E-01
 0.42251176346000E+02 0.18225382126490E+00
 0.11676557932000E+02 0.46828459437429E+00
 0.35930506482000E+01 0.44575817336002E+00
 s    1 1.00
 0.40245147363000E+00 0.10000000000000E+01
 s    1 1.00
 0.13090182668000E+00 0.10000000000000E+01
 p    3 1.00
 0.94680970621000E+01 0.56888332011037E-01
 0.20103545142000E+01 0.31294059336471E+00
 0.54771004707000E+00 0.76065016509135E+00
 p    1 1.00
 0.15268613795000E+00 0.10000000000000E+01
 d    1 1.00
 0.80000000000000E+00 0.10000000000000E+01
 
   17 0
 s    5 1.00
 0.12384016938000E+04 0.55173650481097E-02
 0.18629004992000E+03 0.41088828555946E-01
 0.42251176346000E+02 0.18225382126490E+00
 0.11676557932000E+02 0.46828459437429E+00
 0.35930506482000E+01 0.44575817336002E+00
 s    1 1.00
 0.40245147363000E+00 0.10000000000000E+01
 s    1 1.00
 0.13090182668000E+00 0.10000000000000E+01
 p    3 1.00
 0.94680970621000E+01 0.56888332011037E-01
 0.20103545142000E+01 0.31294059336471E+00
 0.54771004707000E+00 0.76065016509135E+00
 p    1 1.00
 0.15268613795000E+00 0.10000000000000E+01
 d    1 1.00
 0.80000000000000E+00 0.10000000000000E+01
 
   18 0
 s    5 1.00
 0.12384016938000E+04 0.55173650481097E-02
 0.18629004992000E+03 0.41088828555946E-01
 0.42251176346000E+02 0.18225382126490E+00
 0.11676557932000E+02 0.46828459437429E+00
 0.35930506482000E+01 0.44575817336002E+00
 s    1 1.00
 0.40245147363000E+00 0.10000000000000E+01
 s    1 1.00
 0.13090182668000E+00 0.10000000000000E+01
 p    3 1.00
 0.94680970621000E+01 0.56888332011037E-01
 0.20103545142000E+01 0.31294059336471E+00
 0.54771004707000E+00 0.76065016509135E+00
 p    1 1.00
 0.15268613795000E+00 0.10000000000000E+01
 d    1 1.00
 0.80000000000000E+00 0.10000000000000E+01
 
   19 0
 s    5 1.00
 0.12384016938000E+04 0.55173650481097E-02
 0.18629004992000E+03 0.41088828555946E-01
 0.42251176346000E+02 0.18225382126490E+00
 0.11676557932000E+02 0.46828459437429E+00
 0.35930506482000E+01 0.44575817336002E+00
 s    1 1.00
 0.40245147363000E+00 0.10000000000000E+01
 s    1 1.00
 0.13090182668000E+00 0.10000000000000E+01
 p    3 1.00
 0.94680970621000E+01 0.56888332011037E-01
 0.20103545142000E+01 0.31294059336471E+00
 0.54771004707000E+00 0.76065016509135E+00
 p    1 1.00
 0.15268613795000E+00 0.10000000000000E+01
 d    1 1.00
 0.80000000000000E+00 0.10000000000000E+01
 
   20 0
 s    5 1.00
 0.17128415853000E+04 -.54477995804909E-02
 0.25764812677000E+03 -.40627174632423E-01
 0.58458245853000E+02 -.18111962250584E+00
 0.16198367905000E+02 -.46843975563173E+00
 0.50052600809000E+01 -.44616846289231E+00
 s    1 1.00
 0.58731856571000E+00 0.10000000000000E+01
 s    1 1.00
 0.18764592253000E+00 0.10000000000000E+01
 p    3 1.00
 0.13571470233000E+02 -.58848116969522E-01
 0.29257372874000E+01 -.32024624762471E+00
 0.79927750754000E+00 -.75328226520436E+00
 p    1 1.00
 0.21954348034000E+00 0.10000000000000E+01
 d    1 1.00
 0.10000000000000E+01 0.10000000000000E+01
 
   21 0
 s    5 1.00
 0.12384016938000E+04 0.55173650481097E-02
 0.18629004992000E+03 0.41088828555946E-01
 0.42251176346000E+02 0.18225382126490E+00
 0.11676557932000E+02 0.46828459437429E+00
 0.35930506482000E+01 0.44575817336002E+00
 s    1 1.00
 0.40245147363000E+00 0.10000000000000E+01
 s    1 1.00
 0.13090182668000E+00 0.10000000000000E+01
 p    3 1.00
 0.94680970621000E+01 0.56888332011037E-01
 0.20103545142000E+01 0.31294059336471E+00
 0.54771004707000E+00 0.76065016509135E+00
 p    1 1.00
 0.15268613795000E+00 0.10000000000000E+01
 d    1 1.00
 0.80000000000000E+00 0.10000000000000E+01
 
   22 0
 s    3 1.00
 0.13010701000000E+02 0.33485484812989E-01
 0.19622572000000E+01 0.23472187088125E+00
 0.44453796000000E+00 0.81377028525955E+00
 s    1 1.00
 0.12194962000000E+00 0.10000000000000E+01
 
   23 0
 s    3 1.00
 0.13010701000000E+02 0.33485484812989E-01
 0.19622572000000E+01 0.23472187088125E+00
 0.44453796000000E+00 0.81377028525955E+00
 s    1 1.00
 0.12194962000000E+00 0.10000000000000E+01
 
   24 0
 s    3 1.00
 0.13010701000000E+02 0.33485484812989E-01
 0.19622572000000E+01 0.23472187088125E+00
 0.44453796000000E+00 0.81377028525955E+00
 s    1 1.00
 0.12194962000000E+00 0.10000000000000E+01
 
   25 0
 s    3 1.00
 0.13010701000000E+02 0.33485484812989E-01
 0.19622572000000E+01 0.23472187088125E+00
 0.44453796000000E+00 0.81377028525955E+00
 s    1 1.00
 0.12194962000000E+00 0.10000000000000E+01
 
   26 0
 s    3 1.00
 0.13010701000000E+02 0.33485484812989E-01
 0.19622572000000E+01 0.23472187088125E+00
 0.44453796000000E+00 0.81377028525955E+00
 s    1 1.00
 0.12194962000000E+00 0.10000000000000E+01
 
   27 0
 s    3 1.00
 0.13010701000000E+02 0.33485484812989E-01
 0.19622572000000E+01 0.23472187088125E+00
 0.44453796000000E+00 0.81377028525955E+00
 s    1 1.00
 0.12194962000000E+00 0.10000000000000E+01
 
   28 0
 s    3 1.00
 0.13010701000000E+02 0.33485484812989E-01
 0.19622572000000E+01 0.23472187088125E+00
 0.44453796000000E+00 0.81377028525955E+00
 s    1 1.00
 0.12194962000000E+00 0.10000000000000E+01
 
   29 0
 s    3 1.00
 0.13010701000000E+02 0.33485484812989E-01
 0.19622572000000E+01 0.23472187088125E+00
 0.44453796000000E+00 0.81377028525955E+00
 s    1 1.00
 0.12194962000000E+00 0.10000000000000E+01
 
   30 0
 s    3 1.00
 0.13010701000000E+02 0.33485484812989E-01
 0.19622572000000E+01 0.23472187088125E+00
 0.44453796000000E+00 0.81377028525955E+00
 s    1 1.00
 0.12194962000000E+00 0.10000000000000E+01
 
[MO]
 Sym=     1a   
 Ene= -.14119826792485E+02
 Spin= Alpha
 Occup= 2.000000
     1 0.19628142650611E-04
     2 -.41060655894031E-03
     3 0.38025678880556E-02
     4 -.34894849301865E-04
     5 0.52380167366593E-04
     6 -.14920651445502E-04
     7 0.16280369977817E-02
     8 -.25483135067455E-02
     9 0.23620775950480E-02
    10 -.67076439129626E-05
    11 -.61454043014251E-05
    12 0.12853048214388E-04
    13 0.22829588211030E-04
    14 -.54235099915645E-05
    15 -.68666491994918E-05
    16 0.41927147371703E-05
    17 0.12404271704726E-03
    18 -.22095036298511E-01
    19 0.52044932355501E-05
    20 0.13093848060848E-03
    21 0.74793464255794E-04
    22 0.39324651866531E-02
    23 -.78797427595782E-02
    24 -.42681125915770E-02
    25 -.88910765367304E-05
    26 0.55775071516046E-05
    27 0.33135693851258E-05
    28 -.25873711621588E-04
    29 0.45691936443588E-04
    30 -.21123355238132E-04
    31 0.67943665455145E-05
    32 -.52905450205843E-04
    33 -.13985763739036E-02
    34 0.93321688689427E-05
    35 -.30976374242903E-04
    36 0.21341813334488E-04
    37 0.45871412397270E-03
    38 0.22017679610065E-02
    39 -.13583150329824E-02
    40 -.16523459066580E-04
    41 0.17827249523960E-04
    42 -.13037904573798E-05
    43 -.16825961748187E-04
    44 0.20141182901481E-04
    45 0.11486461463720E-04
    46 0.38015930279080E-05
    47 0.18937593848554E-04
    48 -.36219486858388E-02
    49 -.55774249352392E-04
    50 0.33064061888231E-04
    51 -.30340089673303E-04
    52 0.26690216347034E-02
    53 -.53364823595331E-03
    54 0.83467800420718E-03
    55 -.10058460783162E-04
    56 -.22824223253304E-04
    57 0.32882684036465E-04
    58 0.24502095177926E-04
    59 0.14256633406154E-04
    60 -.13102239601455E-05
    61 -.11853954313879E-04
    62 0.47663853583425E-03
    63 0.28026137796390E-02
    64 -.13319546921564E-04
    65 0.10273991607201E-03
    66 -.12460957540031E-03
    67 -.23790614568506E-03
    68 -.30478598701940E-02
    69 -.16757130053579E-02
    70 0.21520119155137E-04
    71 -.60413595658647E-05
    72 -.15478759589273E-04
    73 -.46181528738734E-04
    74 0.10467765500703E-03
    75 -.29923939285585E-04
    76 0.60485326593972E-04
    77 -.11184577878972E-02
    78 0.18246136463131E-01
    79 -.58907183912283E-04
    80 0.39382760903202E-04
    81 0.28194606384528E-04
    82 -.90402310542344E-02
    83 -.53001589858598E-02
    84 0.59719524469695E-02
    85 0.58215951747326E-04
    86 -.12803122119575E-03
    87 0.69815269448429E-04
    88 -.62265789878223E-04
    89 -.94654243952044E-04
    90 -.44249656371993E-04
    91 -.47534275028062E-05
    92 0.66378191643018E-04
    93 0.18773831251333E-02
    94 -.10126745017381E-04
    95 0.19385887529396E-04
    96 -.46938941405089E-04
    97 -.87354863446141E-03
    98 -.23914743556525E-03
    99 0.11125106617983E-03
   100 0.51670086691617E-06
   101 -.30900539868609E-05
   102 0.25733531199448E-05
   103 0.64635772094721E-05
   104 0.50396436985931E-05
   105 0.57817119943710E-05
   106 0.92708572063042E-05
   107 -.11433052618103E-03
   108 -.91899290616255E-03
   109 0.23343452936771E-04
   110 0.38008571431750E-05
   111 -.20689875474505E-05
   112 -.99169779127148E-05
   113 -.25041243627824E-03
   114 0.12831250609336E-03
   115 -.27740999765818E-05
   116 -.35168504734931E-05
   117 0.62909504500749E-05
   118 -.66738747612762E-05
   119 0.10023361821801E-04
   120 0.58810201507047E-05
   121 -.33320750722640E-02
   122 0.19214087793814E-03
   123 -.53461497068312E-03
   124 0.26475414560856E-04
   125 -.27481944581908E-05
   126 0.20408048551911E-04
   127 0.56245212619760E-03
   128 -.47474426355150E-04
   129 0.46530662162627E-04
   130 -.91517892224812E-05
   131 0.74567515026976E-06
   132 0.84061140722115E-05
   133 0.11443267527741E-04
   134 -.64425804259840E-05
   135 0.80926911256162E-05
   136 -.37312796589482E-06
   137 0.13826323433763E-03
   138 -.24960619189897E-02
   139 -.25811191353412E-04
   140 0.14774766381390E-04
   141 -.60058545356374E-05
   142 -.11481301765198E-02
   143 -.18257340346299E-02
   144 0.19142121200116E-02
   145 -.12987262517046E-04
   146 -.88985228177875E-05
   147 0.21885785334834E-04
   148 -.30948123165593E-04
   149 0.29892512540081E-04
   150 0.17280544079818E-04
   151 -.29919104017526E-04
   152 0.58899871694176E-03
   153 0.57031924390867E-03
   154 -.55705201943117E-04
   155 0.79605902734037E-04
   156 -.12272129781917E-04
   157 -.13247687220867E-02
   158 0.83759503974773E-03
   159 -.78571894335440E-03
   160 0.28636621347511E-04
   161 -.38451157004097E-04
   162 0.98145356565858E-05
   163 -.59128274980610E-04
   164 0.21222757744495E-04
   165 0.42599540782807E-05
   166 0.37828839828282E-04
   167 -.10208284236015E-02
   168 0.19842328164065E-01
   169 -.12322233516074E-03
   170 -.11662177188608E-04
   171 0.63077667026355E-04
   172 0.53050811162395E-02
   173 0.95457318074019E-02
   174 -.30649264280402E-02
   175 -.84806763973316E-04
   176 0.13595025560649E-03
   177 -.51143491633179E-04
   178 0.55316726550395E-04
   179 0.20516451980395E-04
   180 -.38819692873225E-04
   181 -.25591887503393E-03
   182 -.31824426114062E-03
   183 -.21711502409563E-01
   184 0.12890652618510E-03
   185 0.10282399388286E-02
   186 0.55804732615582E-04
   187 -.82014913961110E-02
   188 -.52985308951052E-02
   189 0.45815830765269E-02
   190 -.46084950697508E-03
   191 0.89609826787642E-03
   192 -.43524876090133E-03
   193 0.44884040362405E-03
   194 0.84038333572268E-04
   195 -.87598386349591E-04
   196 0.98892419981223E+00
   197 -.44914934810670E-01
   198 0.55019883853431E-01
   199 0.16629860540014E-02
   200 -.23757429212629E-02
   201 -.16401796896268E-02
   202 0.73286592089903E-02
   203 -.81381763373537E-02
   204 -.62632052914189E-02
   205 -.10625152458983E-03
   206 -.26958008755039E-04
   207 0.13320953334487E-03
   208 -.32627284075351E-03
   209 0.20301053483409E-03
   210 0.16747008291954E-03
   211 -.25178984473668E-03
   212 -.77808659240045E-03
   213 -.22199359667193E-01
   214 -.12520556973320E-02
   215 -.56336119591038E-04
   216 0.83569761430843E-03
   217 0.14559379344012E-01
   218 0.99121993483057E-02
   219 -.71766171605044E-02
   220 0.57568223291841E-03
   221 -.57215337780099E-03
   222 -.35288551174224E-05
   223 -.13609305527415E-04
   224 -.74271372876447E-03
   225 -.56283709533928E-04
   226 0.76732258825544E-05
   227 -.12008099940925E-03
   228 -.76455341849779E-02
   229 -.44390926349981E-04
   230 0.22217281688578E-03
   231 0.35823865350081E-04
   232 0.37951995420810E-03
   233 0.18034728458774E-02
   234 0.24967347331043E-02
   235 0.84245607771377E-04
   236 -.74434540674273E-04
   237 -.98110670971038E-05
   238 0.43849794091098E-04
   239 -.99318865410222E-04
   240 -.13094498654683E-03
   241 0.73509122521759E-05
   242 -.57293307441750E-04
   243 0.53755294866482E-02
   244 0.62130514784460E-04
   245 -.18809371331944E-04
   246 -.13898532812472E-03
   247 -.74815511495671E-03
   248 -.62024339648159E-04
   249 0.45243766460374E-04
   250 -.82329869147970E-05
   251 0.23504415327912E-04
   252 -.15271428413115E-04
   253 -.47985581787404E-04
   254 0.56326193171408E-04
   255 0.20748053380285E-05
   256 -.74805229805723E-05
   257 0.14540515318834E-03
   258 0.25406940035807E-03
   259 -.21845941282698E-04
   260 0.11881891660200E-04
   261 -.98251973871414E-05
   262 -.30178237091970E-04
   263 -.36960190233717E-04
   264 -.16657809918123E-03
   265 -.31940319494590E-05
   266 -.11796326073833E-05
   267 0.43736645568423E-05
   268 -.15469307345915E-05
   269 -.67931938506960E-05
   270 -.23937848905332E-05
   271 0.10761374537666E-04
   272 -.16508083149827E-03
   273 -.50162958715948E-03
   274 0.35728491441437E-04
   275 -.39448359144096E-04
   276 0.85046428519422E-05
   277 0.46681947187043E-03
   278 0.10180722935091E-02
   279 0.53906260679966E-03
   280 0.21488133132034E-05
   281 0.41903701640979E-05
   282 -.63391834773013E-05
   283 -.12629344516030E-04
   284 -.68604034039212E-05
   285 -.75487348077017E-06
   286 -.56826353648238E-02
   287 0.29271758480704E-03
   288 -.10538722349470E-02
   289 -.34463928003472E-05
   290 0.42360983672808E-05
   291 -.30623082076132E-06
   292 0.18143431177434E-04
   293 0.17137269579626E-03
   294 0.36655512966514E-04
   295 0.43306622049759E-05
   296 -.33831015395145E-05
   297 -.94756066546145E-06
   298 -.22424636263066E-05
   299 0.26299115481268E-05
   300 -.17645590755187E-07
   301 -.10912232594952E-04
   302 0.22770609408781E-03
   303 -.13822389196043E-02
   304 -.38001978867719E-04
   305 0.67014085990477E-05
   306 -.33749742942152E-04
   307 0.85297122857984E-03
   308 -.13415162571145E-03
   309 0.22446126868615E-03
   310 -.31678840475751E-04
   311 0.13780184497069E-04
   312 0.17898655978682E-04
   313 -.87346099865499E-06
   314 -.60582366783942E-05
   315 -.12505253467437E-05
   316 0.47561441160993E-04
   317 0.46228589587685E-04
   318 0.26394813764415E-04
   319 0.48492708696089E-05
   320 -.93982668464759E-05
   321 -.25888315261790E-04
   322 0.59638210590933E-05
   323 0.36910634831872E-04
   324 -.14556156483010E-03
   325 -.89560191683623E-03
   326 -.38588997045658E-04
   327 -.30695910925630E-03
   328 0.10836810460885E-03
   329 0.24501512564625E-03
   330 0.31623406886733E-03
   331 0.13941993000012E-02
   332 0.71743069161450E-04
   333 -.18157082892664E-03
 Sym=     2a   
 Ene= -.14119730355872E+02
 Spin= Alpha
 Occup= 2.000000
     1 0.38331292571433E-05
     2 0.18038373044227E-04
     3 -.36355455414839E-02
     4 0.55209450749806E-04
     5 0.24790856750717E-04
     6 -.38595021494654E-04
     7 -.17645509305084E-02
     8 -.18216565268368E-02
     9 0.13487293549158E-02
    10 -.38013310374572E-04
    11 0.17376081703138E-05
    12 0.36275702204258E-04
    13 -.76053316844738E-05
    14 -.48985461889418E-05
    15 -.29277137501394E-05
    16 0.68637370987032E-05
    17 -.53204156135509E-04
    18 -.15939153202980E-02
    19 -.30778675758538E-04
    20 0.13458686340220E-04
    21 0.20577832363487E-04
    22 0.16970935668337E-02
    23 -.18423323469988E-02
    24 -.10426325739984E-02
    25 0.22053912463657E-04
    26 -.28814878962185E-04
    27 0.67609664985283E-05
    28 -.89267735820707E-05
    29 0.20412211501846E-05
    30 -.15766538186198E-04
    31 -.11731882379195E-04
    32 0.47485097159458E-03
    33 0.28441080294633E-02
    34 0.93304102852109E-04
    35 -.67745929029540E-04
    36 -.11420828036150E-03
    37 -.25852240285083E-02
    38 0.12880280647944E-02
    39 -.19746586184294E-02
    40 0.31562856625197E-04
    41 -.49193606326212E-04
    42 0.17630749701016E-04
    43 0.16214082829322E-04
    44 -.84700536753334E-04
    45 -.67076504647644E-04
    46 0.60504222085977E-04
    47 -.11172974928676E-02
    48 0.18193879515138E-01
    49 0.63364690655897E-04
    50 0.37857292450223E-04
    51 0.18418264335837E-04
    52 -.25429326932543E-04
    53 0.11576457626486E-01
    54 0.33604812102353E-02
    55 -.36986514677384E-04
    56 0.12644522164148E-04
    57 0.24341992513235E-04
    58 0.12577992875697E-03
    59 -.19133043097878E-04
    60 0.11709567841010E-03
    61 0.41031605668524E-05
    62 0.12740301847055E-03
    63 -.22057079087752E-01
    64 0.11304847393463E-03
    65 -.49085153187509E-04
    66 0.85142649202201E-04
    67 -.88887669380266E-02
    68 -.55399048393323E-03
    69 -.40719471306306E-02
    70 0.19906672645034E-04
    71 -.34619527620646E-04
    72 0.14712854975612E-04
    73 -.47118317811122E-05
    74 -.40422961402539E-04
    75 -.18882476245227E-04
    76 0.20160993643339E-04
    77 -.42033869236061E-03
    78 0.39644711047011E-02
    79 0.61870412938454E-04
    80 0.11924564876239E-05
    81 -.16600266185419E-04
    82 -.30509886856133E-02
    83 0.35183277882860E-03
    84 0.24515399004860E-02
    85 -.22798946581263E-04
    86 0.12649117996225E-04
    87 0.10149828585039E-04
    88 -.12686534668074E-04
    89 -.43701448360113E-06
    90 0.76769997330285E-05
    91 0.72783054199219E-05
    92 -.55454018259589E-04
    93 0.53588732406505E-02
    94 -.50268212933311E-04
    95 -.76007188684765E-04
    96 -.12431479713133E-03
    97 0.32969065790464E-03
    98 0.67537822772781E-03
    99 -.12254648010433E-03
   100 0.50105954094539E-04
   101 -.54628138172511E-04
   102 0.45221840779711E-05
   103 0.12889268900708E-05
   104 -.28486988023458E-04
   105 -.39097347537546E-04
   106 -.10211410278404E-04
   107 0.22743862371764E-03
   108 -.13414229824509E-02
   109 0.26174179299015E-04
   110 0.21911258847784E-04
   111 -.41092991850446E-04
   112 -.55070779007144E-03
   113 -.59652298350913E-03
   114 0.38267490669393E-03
   115 0.15326182036432E-05
   116 -.15718182898488E-04
   117 0.14185564694845E-04
   118 -.21822067773500E-04
   119 0.82102500985454E-05
   120 0.15982256860432E-04
   121 -.80610901382548E-02
   122 0.40092100620144E-03
   123 -.11882639059910E-02
   124 0.36801197393361E-05
   125 -.50084082096426E-05
   126 0.45560075571992E-05