 operating system is UNIX !

 ridft (missouri) : TURBOMOLE V7.2 ( 21454 ) 4 Oct 2017 at 12:48:15
 Copyright (C) 2017 TURBOMOLE GmbH, Karlsruhe


    2018-02-09 11:43:41.257 



                                  r i d f t

                        DFT program with RI approximation 
                                for coulomb part 




                                                 
                                 References:     
                                                 
          TURBOMOLE:                             
              R. Ahlrichs, M. Baer, M. Haeser, H. Horn, and
              C. Koelmel
              Electronic structure calculations on workstation
              computers: the program system TURBOMOLE
              Chem. Phys. Lett. 162: 165 (1989)
          Density Functional:                              
              O. Treutler and R. Ahlrichs                      
              Efficient Molecular Numerical Integration Schemes
              J. Chem. Phys. 102: 346 (1995)                   
          Parallel Version:                                
              Performance of parallel TURBOMOLE for Density    
              Functional Calculations                          
              M. v. Arnim and R. Ahlrichs                      
              J. Comp. Chem. 19: 1746 (1998)                   
          RI-J Method:                                     
              Auxiliary Basis Sets to approximate Coulomb      
              Potentials                                       
              Chem. Phys. Lett. 240: 283 (1995)                
              K. Eichkorn, O. Treutler, H. Oehm, M. Haeser     
              and R. Ahlrichs                                  
              Chem. Phys. Lett. 242: 652 (1995)                
                                                           
              Auxiliary Basis Sets for Main Row Atoms and their
              Use to approximate Coulomb Potentials            
              K. Eichkorn, F. Weigend, O. Treutler and         
              R. Ahlrichs                                      
              Theo. Chem. Acc. 97: 119 (1997)                   
                                                           
              Accurate Coulomb-fitting basis sets for H to Rn 
              F. Weigend                                        
              Phys. Chem. Chem. Phys. 8: 1057 (2006)            
                                                           
          Multipole accelerated RI-J (MARI-J):             
              Fast evaluation of the Coulomb potential for     
              electron densities using multipole accelerated   
              resolution of identity approximation             
              M. Sierka, A. Hogekamp and R. Ahlrichs           
              J. Chem. Phys. 118: 9136 (2003)                  
          RI-JK Method:                                     
              A fully direct RI-HF algorithm: Implementation,
              optimised auxiliary basis sets, demonstration of
              accuracy and efficiency                         
              F. Weigend                                      
              Phys. Chem. Chem. Phys. 4: 4285 (2002)           
          Two-component HF and DFT with spin-orbit coupling:  
              Self-consistent treatment of spin-orbit         
              interactions with efficient Hartree-Fock and    
              density functional methods                      
              M. K. Armbruster, F. Weigend, C. van Wüllen and 
              W. Klopper                                      
              Phys. Chem. Chem. Phys. 10: 1748 (2008)         
          Relativistic all-electron 2c calculations           
              An efficient implementation of two-component    
              relativistic exact-decoupling methods for large 
              molecules                                       
              D. Peng, N. Middendorf, F. Weigend, M. Reiher   
              J. Chem. Phys. 138, 184105 (2013)               
                                         




              +--------------------------------------------------+
              |      general information about current run       |
              +--------------------------------------------------+

 
 PBE0 hybrid functional
 exchange:    3/4 (LDA+PBE) + 1/4 HF
 correlation: LDA (PW) + PBE
 A Hybrid-DFT calculation using the RI-J approximation will be carried out.
 Allocatable memory for RI due to $ricore (MB):                  5000


              +--------------------------------------------------+
              | Atomic coordinate, charge and isotop information |
              +--------------------------------------------------+

                    atomic coordinates            atom    charge  isotop
        -12.81303530    6.80790413    0.00660274    o      8.000     0
        -10.86501066    5.50585570    0.00586515    c      6.000     0
         -8.33003697    6.66578228    0.01013115    c      6.000     0
         -6.09350165    5.19222261    0.00713881    c      6.000     0
         -6.19318899    2.53246439   -0.00226593    c      6.000     0
         -8.59477285    1.37244515   -0.00915568    c      6.000     0
        -10.79897947    2.77219771   -0.00372920    c      6.000     0
         -3.01494757    6.22325430    0.01023471    s     16.000     0
         -2.03732038    3.03313698    0.00262245    c      6.000     0
         -3.85800827    1.36160833   -0.00896281    n      7.000     0
          0.63139990    2.54974390    0.00193778    c      6.000     0
          1.61988083   -0.65068446   -0.01414471    s     16.000     0
          2.37360806    4.30705594    0.00814536    n      7.000     0
          4.77557307    3.37595912    0.00068207    c      6.000     0
          4.85287584    0.44001093   -0.00564577    c      6.000     0
          5.87819550   -0.23376573    1.67325690    h      1.000     0
          5.88364783   -0.21875876   -1.69279045    h      1.000     0
          6.73327197    4.59629093    0.01225882    o      8.000     0
         -8.16451393   10.16959949    0.02279187    br    35.000     0
         -8.66588346   -0.69644595   -0.01571667    h      1.000     0
        -12.64437485    1.84040408   -0.00918144    h      1.000     0
 
       center of nuclear mass  :   -4.07428260    5.04438152    0.00619300
       center of nuclear charge:   -3.92903200    4.82820904    0.00547440

              +--------------------------------------------------+
              |               basis set information              |
              +--------------------------------------------------+

              we will work with the 1s 3p 5d 7f 9g ... basis set
              ...i.e. with spherical basis functions...

   type   atoms  prim   cont   basis
   ---------------------------------------------------------------------------
    o        2     24     14   def2-SV(P)   [3s2p1d|7s4p1d]
    c       10     24     14   def2-SV(P)   [3s2p1d|7s4p1d]
    s        2     36     18   def2-SV(P)   [4s3p1d|10s7p1d]
    n        2     24     14   def2-SV(P)   [3s2p1d|7s4p1d]
    h        4      4      2   def2-SV(P)   [2s|4s]
    br       1     74     32   def2-SV(P)   [5s4p3d|14s10p6d]
   ---------------------------------------------------------------------------
   total:   21    498    272
   ---------------------------------------------------------------------------

   total number of primitive shells          :   88
   total number of contracted shells         :  120
   total number of cartesian basis functions :  291
   total number of SCF-basis functions       :  272


 integral neglect threshold       :  0.11E-10
 integral storage threshold THIZE :  0.10E-04
 integral storage threshold THIME :         5

 RI-J AUXILIARY BASIS SET information:

              we will work with the 1s 3p 5d 7f 9g ... basis set
              ...i.e. with spherical basis functions...

   type   atoms  prim   cont   basis
   ---------------------------------------------------------------------------
    o        2     70     49   def2-SV(P)   [6s4p3d1f1g|12s5p4d2f1g]
    c       10     70     49   def2-SV(P)   [6s4p3d1f1g|12s5p4d2f1g]
    s        2     77     51   def2-SV(P)   [8s4p3d1f1g|14s5p5d2f1g]
    n        2     70     49   def2-SV(P)   [6s4p3d1f1g|12s5p4d2f1g]
    h        4     16     11   def2-SV(P)   [3s1p1d|5s2p1d]
    br       1     89     58   def2-SV(P)   [8s4p3d2f1g|19s5p5d3f1g]
   ---------------------------------------------------------------------------
   total:   21   1287    890
   ---------------------------------------------------------------------------

   total number of primitive shells          :  140
   total number of contracted shells         :  282
   total number of cartesian basis functions : 1101
   total number of SCF-basis functions       :  890


 symmetry group of the molecule :   c1 

 the group has the following generators :
   c1(z)

    1 symmetry operations found

 there are 1 real representations :   a   

 maximum number of shells which are related by symmetry :  1


    mo occupation :
   irrep   mo's   occupied
    a      272       81
 
 number of basis functions   :                    272
 number of occupied orbitals :                     81
 
  
           ------------------
           density functional
           ------------------
 PBE0 hybrid functional
 exchange:    3/4 (LDA+PBE) + 1/4 HF
 correlation: LDA (PW) + PBE

 iterations will be done with small grid
  
 spherical integration : Lebedev's spherical grid
 spherical gridsize    :                     5
    i.e. gridpoints    :                   590
 value for diffuse not defined
 radial integration    : Chebyshev 2nd kind (scaling 3)
 radial gridsize       :                     8
 integration cells     :                    21
 partition function    : becke
 partition sharpness   :                     3
  

 biggest AO integral is expected to be    21.668154127
  
           ------------------------
               RI-J - INFORMATION
           ------------------------
 Contributions to RI integral batches: 
  neglected integral batches:                  2257
  direct contribution:                            0
  memory contribution:                  5003
 Memory core needed for (P|Q) and Cholesky      7 MByte
 Memory core minimum needed except of (P|Q)     1 MByte
 Total minimum memory core needed (sum)         7 MByte
  
 ****************************************
 Memory allocated for RI-J   249 MByte
 ****************************************
                                            

          ------------------------
          nuclear repulsion energy  :   1710.82262512    
          ------------------------


         -----------------
         -S,T+V- integrals
         -----------------

 1e-integrals will be neglected if expon. factor < 0.114844E-11
 
   Difference densities algorithm switched on.
   The maximal number of linear combinations of
   difference densities is                    20 .

 DIIS switched on: error vector is FDS-SDF
 Max. Iterations for DIIS is     :   4
 DIIS matrix (see manual) 
    Scaling factor of diagonals  :  1.200
    threshold for scaling factor :  0.000

 scf convergence criterion : increment of total energy < .1000000D-06
                  and increment of one-electron energy < .1000000D-03

  MOs are in ASCII format !


 automatic virtual orbital shift switched on 
      shift if e(lumo)-e(homo) < 0.10000000    


 reading orbital data $scfmo  from file mos
 orbital characterization : scfconv=7

 dump of DSCF restart information has been disabled !


 Starting SCF iterations

          Overall gridpoints after grid construction =        122132

 ITERATION  ENERGY          1e-ENERGY        2e-ENERGY     NORM[dD(SAO)]  TOL
   1  -4011.7254269065    -8982.4810554     3259.9330033    0.000D+00 0.115D-10
                            Exc = -172.725604635     Coul =  3488.31740083    
                            exK = -55.6587928611    
                              N = 162.00000366    
                            current damping = 0.700
 
          max. resid. norm for Fia-block=  1.390D-03 for orbital     39a         
          max. resid. fock norm         =  5.298D-03 for orbital    269a         

 ITERATION  ENERGY          1e-ENERGY        2e-ENERGY     NORM[dD(SAO)]  TOL
   2  -4011.7254639688    -8982.4856532     3259.9375642    0.127D-01 0.726D-11
                            Exc = -172.725173373      Eck =  3432.66273752    
                              N = 162.00000367    
                            current damping = 0.650
 
          Norm of current diis error: 0.59786E-02
          max. resid. norm for Fia-block=  7.606D-04 for orbital     76a         
          max. resid. fock norm         =  2.501D-03 for orbital    269a         

 ITERATION  ENERGY          1e-ENERGY        2e-ENERGY     NORM[dD(SAO)]  TOL
   3  -4011.7254701518    -8982.4744582     3259.9263629    0.657D-02 0.585D-11
                            Exc = -172.725789259      Eck =  3432.65215218    
                              N = 162.00000365    
                            current damping = 0.600
 
          Norm of current diis error: 0.46503E-02
          max. resid. norm for Fia-block=  3.229D-04 for orbital     59a         
          max. resid. fock norm         =  8.411D-04 for orbital    269a         

 ITERATION  ENERGY          1e-ENERGY        2e-ENERGY     NORM[dD(SAO)]  TOL
   4  -4011.7254740807    -8982.4835311     3259.9354319    0.199D-02 0.532D-11
                            Exc = -172.725355526      Eck =  3432.66078745    
                              N = 162.00000368    
                            current damping = 0.650
 
          Norm of current diis error: 0.16135E-02
          max. resid. norm for Fia-block=  1.206D-04 for orbital     76a         
          max. resid. fock norm         =  3.348D-04 for orbital    269a         

 ITERATION  ENERGY          1e-ENERGY        2e-ENERGY     NORM[dD(SAO)]  TOL
   5  -4011.7254745419    -8982.4819315     3259.9338318    0.113D-02 0.511D-11
                            Exc = -172.725459681      Eck =  3432.65929147    
                              N = 162.00000366    
                            current damping = 0.700
 
          Norm of current diis error: 0.84447E-03
          max. resid. norm for Fia-block=  5.443D-05 for orbital     76a         
          max. resid. fock norm         =  1.433D-04 for orbital    269a         
          mo-orthogonalization: Cholesky decomposition

 ITERATION  ENERGY          1e-ENERGY        2e-ENERGY     NORM[dD(SAO)]  TOL
   6  -4011.7254749188    -8982.4820124     3259.9339123    0.317D-03 0.493D-11
                            Exc = -172.725458640      Eck =  3432.65937096    
                              N = 162.00000369    
                            current damping = 0.750
 
          Norm of current diis error: 0.25141E-03
          max. resid. norm for Fia-block=  2.373D-05 for orbital     76a         
          max. resid. fock norm         =  5.771D-05 for orbital    269a         

 ENERGY CONVERGED !

          Overall gridpoints after grid construction =        372366

 ITERATION  ENERGY          1e-ENERGY        2e-ENERGY     NORM[dD(SAO)]  TOL
   7  -4011.7254726993    -8982.4820386     3259.9339408    0.140D-03 0.481D-11
                            Exc = -172.725430363      Eck =  3432.65937116    
                              N = 161.99999769    
                            current damping = 0.600
 
          Norm of current diis error: 0.13495E-03
          max. resid. norm for Fia-block=  1.050D-05 for orbital     76a         
          max. resid. fock norm         =  2.232D-05 for orbital    269a         

 End of SCF iterations

   convergence criteria satisfied after     7 iterations


                  ------------------------------------------ 
                 |  total energy      =  -4011.72547269927  |
                  ------------------------------------------ 
                 :  kinetic energy    =   4002.29129218066  :
                 :  potential energy  =  -8014.01676487993  :
                 :  virial theorem    =      1.99764834843  :
                 :  wavefunction norm =      1.00000000000  :
                  .......................................... 


 <geterg> : there is no data group $energy 


 orbitals $scfmo  will be written to file mos

    irrep                 77a         78a         79a         80a         81a   
 eigenvalues H         -0.16891    -0.16320    -0.12900    -0.11974    -0.07410
            eV          -4.5963     -4.4410     -3.5103     -3.2583     -2.0163
 occupation              2.0000      2.0000      2.0000      2.0000      2.0000 

    irrep                 82a         83a         84a         85a         86a   
 eigenvalues H          0.01682     0.10826     0.11882     0.12821     0.13573
            eV           0.4577      2.9459      3.2334      3.4888      3.6934
 
 
 
 
 ==============================================================================
                           electrostatic moments
 ==============================================================================

 reference point for electrostatic moments:    0.00000   0.00000   0.00000

 
              nuc           elec       ->  total
 ------------------------------------------------------------------------------
                          charge      
 ------------------------------------------------------------------------------
         161.000000    -162.000000      -1.000000
 
 ------------------------------------------------------------------------------
                       dipole moment  
 ------------------------------------------------------------------------------
   x    -632.574151     637.596756       5.022604
   y     777.341656    -783.500041      -6.158385
   z       0.881379      -0.891817      -0.010438
 
   | dipole moment | =     7.9468 a.u. =    20.1989 debye 
 
 ------------------------------------------------------------------------------
                     quadrupole moment
 ------------------------------------------------------------------------------
  xx    7670.269851   -7844.924674    -174.654823
  yy    5802.639074   -5939.256697    -136.617624
  zz       5.693299     -98.500266     -92.806967
  xy   -4802.764205    4837.423827      34.659622
  xz      -7.405415       7.417504       0.012090
  yz      10.948300     -11.035958      -0.087658
 
     1/3  trace=    -134.693138
     anisotropy=      92.932925
 
 ==============================================================================
 


    ------------------------------------------------------------------------
         total  cpu-time :  1 minutes and 30 seconds
         total wall-time :  1 minutes and 30 seconds
    ------------------------------------------------------------------------

   ****  ridft : all done  ****


    2018-02-09 11:45:10.965 


 egrad (missouri) : TURBOMOLE V7.2 ( 21454 ) 4 Oct 2017 at 12:24:43
 Copyright (C) 2017 TURBOMOLE GmbH, Karlsruhe


    2018-02-09 11:45:11.003 




                               e g r a d

                             TURBOMOLE GmbH


             integral direct evaluation of excited state
                     and polarizability gradients
                 and first-order nonadiabatic couplings



          references (see also programs escf, dscf and ridft) 

          review 
          F. Furche and D. Rappoport,  
          "Density functional methods for excited states: 
          equilibrium structure and electronic spectra",
          ch. III of "Computational Photochemistry", ed. by 
          M. Olivucci, vol. 16 of "Theoretical and Computational 
          Chemistry", Elsevier, Amsterdam, 2005.

          nonorthonormal Krylov space methods 
          F. Furche, B. T. Krull, B. D. Nguyen, J. Kwon, 
          J. Chem. Phys. 144 (2016), 174105.

          RI-J method 
          D. Rappoport and F. Furche, 
          J. Chem. Phys. 122 (2005), 064105.

          Lagrangian method, implementation, benchmarks 
          F. Furche and R. Ahlrichs,
          J. Chem. Phys. 117 (2002), 7433;
          J. Chem. Phys. 121 (2004), 12772 (E).

          Polarizability derivatives, Raman intensities 
          D. Rappoport and F. Furche, 
          J. Chem. Phys. 126 (2007), 201104.

          First-order nonadiabatic couplings 
          R. Send and F. Furche, 
          J. Chem. Phys. 132 (2010), 044107.
                                     




              +--------------------------------------------------+
              | Atomic coordinate, charge and isotop information |
              +--------------------------------------------------+

                    atomic coordinates            atom    charge  isotop
        -12.81303530    6.80790413    0.00660274    o      8.000     0
        -10.86501066    5.50585570    0.00586515    c      6.000     0
         -8.33003697    6.66578228    0.01013115    c      6.000     0
         -6.09350165    5.19222261    0.00713881    c      6.000     0
         -6.19318899    2.53246439   -0.00226593    c      6.000     0
         -8.59477285    1.37244515   -0.00915568    c      6.000     0
        -10.79897947    2.77219771   -0.00372920    c      6.000     0
         -3.01494757    6.22325430    0.01023471    s     16.000     0
         -2.03732038    3.03313698    0.00262245    c      6.000     0
         -3.85800827    1.36160833   -0.00896281    n      7.000     0
          0.63139990    2.54974390    0.00193778    c      6.000     0
          1.61988083   -0.65068446   -0.01414471    s     16.000     0
          2.37360806    4.30705594    0.00814536    n      7.000     0
          4.77557307    3.37595912    0.00068207    c      6.000     0
          4.85287584    0.44001093   -0.00564577    c      6.000     0
          5.87819550   -0.23376573    1.67325690    h      1.000     0
          5.88364783   -0.21875876   -1.69279045    h      1.000     0
          6.73327197    4.59629093    0.01225882    o      8.000     0
         -8.16451393   10.16959949    0.02279187    br    35.000     0
         -8.66588346   -0.69644595   -0.01571667    h      1.000     0
        -12.64437485    1.84040408   -0.00918144    h      1.000     0
 
       center of nuclear mass  :   -4.07428260    5.04438152    0.00619300
       center of nuclear charge:   -3.92903200    4.82820904    0.00547440

              +--------------------------------------------------+
              |               basis set information              |
              +--------------------------------------------------+

              we will work with the 1s 3p 5d 7f 9g ... basis set
              ...i.e. with spherical basis functions...

   type   atoms  prim   cont   basis
   ---------------------------------------------------------------------------
    o        2     24     14   def2-SV(P)   [3s2p1d|7s4p1d]
    c       10     24     14   def2-SV(P)   [3s2p1d|7s4p1d]
    s        2     36     18   def2-SV(P)   [4s3p1d|10s7p1d]
    n        2     24     14   def2-SV(P)   [3s2p1d|7s4p1d]
    h        4      4      2   def2-SV(P)   [2s|4s]
    br       1     74     32   def2-SV(P)   [5s4p3d|14s10p6d]
   ---------------------------------------------------------------------------
   total:   21    498    272
   ---------------------------------------------------------------------------

   total number of primitive shells          :   88
   total number of contracted shells         :  120
   total number of cartesian basis functions :  291
   total number of SCF-basis functions       :  272


 residuum convergence criterium   :  0.10E-04


 integral neglect threshold       :  0.11E-10
 integral storage threshold THIZE :  0.10E-04
 integral storage threshold THIME :         5

 
             FOUND RI-J FLAG !
 
  
 AUXILIARY BASIS SET information:

              we will work with the 1s 3p 5d 7f 9g ... basis set
              ...i.e. with spherical basis functions...

   type   atoms  prim   cont   basis
   ---------------------------------------------------------------------------
    o        2     70     49   def2-SV(P)   [6s4p3d1f1g|12s5p4d2f1g]
    c       10     70     49   def2-SV(P)   [6s4p3d1f1g|12s5p4d2f1g]
    s        2     77     51   def2-SV(P)   [8s4p3d1f1g|14s5p5d2f1g]
    n        2     70     49   def2-SV(P)   [6s4p3d1f1g|12s5p4d2f1g]
    h        4     16     11   def2-SV(P)   [3s1p1d|5s2p1d]
    br       1     89     58   def2-SV(P)   [8s4p3d2f1g|19s5p5d3f1g]
   ---------------------------------------------------------------------------
   total:   21   1287    890
   ---------------------------------------------------------------------------

   total number of primitive shells          :  140
   total number of contracted shells         :  282
   total number of cartesian basis functions : 1101
   total number of SCF-basis functions       :  890

 RPA SINGLET-EXCITATION-CALCULATION 
 
             FOUND DFT-FLAG !
 

 symmetry group of the molecule :   c1 

 the group has the following generators :
   c1(z)

    1 symmetry operations found

 there are 1 real representations :   a   

 maximum number of shells which are related by symmetry :  1

 IRREP of excited state :   a   
 

 determining totally symmetric integral contributions 
    - equivalent to irreducible tensor elements - 
 which can be formed within each triple of representations :

             representation triple      contributions

              a     a     a               1

    mo occupation :
   irrep   mo's   occupied
    a      272       81
 
 number of basis functions   :                    272
 number of occupied orbitals :                     81
 
  
           ------------------
           density functional
           ------------------
 PBE0 hybrid functional
 exchange:    3/4 (LDA+PBE) + 1/4 HF
 correlation: LDA (PW) + PBE

 iterations will be done with small grid
  
 spherical integration : Lebedev's spherical grid
 spherical gridsize    :                     5
    i.e. gridpoints    :                   590
 value for diffuse not defined
 radial integration    : Chebyshev 2nd kind (scaling 3)
 radial gridsize       :                     8
 integration cells     :                    21
 partition function    : becke
 partition sharpness   :                     3
  
  
           ----------------------
               RI - INFORMATION
           ----------------------

 biggest AO integral is expected to be    21.668154127

 Threshold for integral neglect (rithr2):   0.11E-10
 Threshold for integral neglect (rithr1):   0.11E-10

 Contributions to RI integral batches: 
  neglected integral batches:                  2115
  direct contribution:                            0
  memory contribution:                  5145
 Core memory available (ricore)            5000 MiB
 Core memory needed for (P|Q) and Cholesky 7 MiB
 Core memory used for integrals            250 MiB
  
 ****************************************
 Memory allocated for RIDFT 257 MiB
 ****************************************
                                            
  MOs are in ASCII format !


 reading orbital data $scfmo  from file mos
 orbital characterization : scfconv=7
 preparing numerical integration ....
          Overall gridpoints after grid construction =        122132

 Calculating ground state density on molecular grid

 Integral of ground state density: N =   162.0000036862645    



 number of non-frozen orbitals          :   272
 number of non-frozen occupied orbitals :    81



                        -------------------
                         excitation vector 
                        -------------------


 dimension of super-tensorspace: 2

          IRREP   tensor space dimension   number of roots

           a             15471                   1

 maximum number of Davidson iterations set to   25


 machine precision: 2.22D-16


 logfile sing_a    will be constructed


                       Nonorthonormal Krylov Space Iteration


 total number of roots to be determined:   1


 maximum core memory set to  5000 MB,
 corresponding to     3796 vectors in CAO basis


 maximum number of simultaneously treated vectors (including degeneracy):        2


 Iteration IRREP Converged      Max. Euclidean
                 roots          residual norm

    1       a        0        3.010112133436503D-02
 
    2       a        0        3.054692324039133D-02
 
    3       a        0        6.222300373567627D-02
 
    4       a        0        2.461220253116028D-02
 
    5       a        0        8.557687381756928D-03
 
    6       a        0        4.006563283495792D-03
 
    7       a        0        1.697841677377809D-03
 
    8       a        0        7.945337815873457D-04
 
    9       a        0        3.290744485208458D-04
 
   10       a        0        1.351419359952637D-04
 
   11       a        0        6.871546750129207D-05
 
   12       a        0        2.378237829132451D-05
 
   13       a        1        8.735827162389251D-06
 

 converged!


 Switching to fine grid

 preparing numerical integration ....
          Overall gridpoints after grid construction =        372366

 Calculating ground state density on molecular grid

 Integral of ground state density: N =   161.9999976867172    



 Iteration IRREP Converged      Max. Euclidean
                 roots          residual norm

   14       a        0        1.089572274865917D-05
 

 NOTE: Residual norms are larger than 1.00D-05 due to mgrid option!

 Eigenpairs written on logfile sing_a   



 IRREP   Vector     Eigenvalue           Euclidean residual norm

  a         1    8.328487141925735D-02    1.089572274865917D-05
 




                    Selection rules for point group c1  


 Subduction with respect to c1  :

    Polar vector representation: a                           

    Axial vector representation: a                           

    Symmetric second rank tensor representation: a                           




                            Ground state


 Total energy:                           -4011.725472699000    

 Charge:

               elec          nuc         total

          -162.000000   161.000000    -1.000000


 Electric dipole moment:

               elec          nuc         total   

    x      637.596756  -632.574151     5.022604    Norm:              7.946846
    y     -783.500041   777.341656    -6.158385
    z       -0.891817     0.881379    -0.010438    Norm / debye:     20.199021


 Electric quadrupole moment:

               elec          nuc         total   

   xx    -7844.924674  7670.269851  -174.654823
   yy    -5939.256697  5802.639074  -136.617624    1/3*trace:      -134.693138
   zz      -98.500266     5.693299   -92.806967
   xy     4837.423827 -4802.764205    34.659622
   xz        7.417504    -7.405415     0.012090    Anisotropy:       92.932925
   yz      -11.035958    10.948300    -0.087658



 ==============================================================================

                              I R R E P   a   

 ==============================================================================


 Excitation is electric dipole allowed

 Excitation is magnetic dipole allowed

 Excitation is electric quadrupole allowed




                         1 singlet a excitation


 Total energy:                           -4011.642187827581    

 Excitation energy:                      0.8328487141925735E-01

 Excitation energy / eV:                  2.266297631156922    

 Excitation energy / nm:                  547.0783815062086    

 Excitation energy / cm^(-1):             18278.91639763849    


 Oscillator strength:

    velocity representation:             0.3088511257688371    

    length representation:               0.3600755022427027    

    mixed representation:                0.3334757252416502    


 Rotatory strength:

    velocity representation:             0.3056298054641143E-05

    velocity rep. / 10^(-40)erg*cm^3:    0.1974515747028701    

    length representation:               0.3539695624353165E-05

    length rep. / 10^(-40)erg*cm^3:      0.2286813859453427    


 Dominant contributions:

      occ. orbital   energy / eV   virt. orbital     energy / eV   |coeff.|^2*100
       81 a              -2.02          82 a               0.46       91.6
 

 Change of electron number:

            -0.000000


 Electric transition dipole moment (velocity rep.):

    x        2.317281        Norm:                  2.358507
    y       -0.439046
    z       -0.000616        Norm / debye:          5.994772


 Electric transition dipole moment (length rep.):

    x        2.499316        Norm:                  2.546592
    y       -0.488413
    z       -0.000861        Norm / debye:          6.472840


 Magnetic transition dipole moment / i:

    x        0.000001        Norm:                  0.001087
    y       -0.000002
    z       -0.001087        Norm / Bohr mag.:      0.297988


 Electric quadrupole transition moment:

   xx      -18.754557
   yy       -4.499701        1/3*trace:            -7.714844
   zz        0.109726
   xy       11.316623
   xz        0.006472        Anisotropy:           25.968299
   yz       -0.006330
 

 Excited state no.    1 chosen for optimization


                       ----------------------
                        CPKS right-hand side 
                       ----------------------


          IRREP   tensor space dimension   number of roots

           a             15471                   1

                          ----------------
                           CPKS equations 
                          ----------------


 logfile dipl_a    will be constructed

 Switching to coarse grid

 preparing numerical integration ....
          Overall gridpoints after grid construction =        122132


                       Nonorthonormal Krylov Space Iteration


 total number of roots to be determined:   1


 maximum core memory set to  5000 MB,
 corresponding to     7544 vectors in CAO basis


 maximum number of simultaneously treated vectors (including degeneracy):        1


 Iteration IRREP Converged      Max. Euclidean
                 roots          residual norm

    1       a        0        1.088843609425448D-01
 
    2       a        0        4.859795860743581D-02
 
    3       a        0        2.236603318064710D-02
 
    4       a        0        9.451625865565551D-03
 
    5       a        0        3.551443409364578D-03
 
    6       a        0        1.235855639315316D-03
 
    7       a        0        4.722836808566086D-04
 
    8       a        0        1.627759941832314D-04
 
    9       a        0        8.209041739673998D-05
 
   10       a        0        1.899285972655553D-05
 
   11       a        1        8.057286235995204D-06
 

 converged!


 Switching to fine grid

 preparing numerical integration ....
          Overall gridpoints after grid construction =        372366

 Iteration IRREP Converged      Max. Euclidean
                 roots          residual norm

   12       a        0        1.625278263332282D-05
 

 NOTE: Residual norms are larger than 1.00D-05 due to mgrid option!

 Eigenpairs written on logfile dipl_a   



 IRREP   Vector     Frequency            Euclidean residual norm

  a         1    0.000000000000000D+00    1.625278263332282D-05
 

                          -------------------
                           relaxed densities 
                          -------------------


    ----------------------------------------
     S+T+V CONTRIBUTIONS TO ENERGY GRADIENT 
    ----------------------------------------

 1e-integral 1st. derivatives will be neglected if expon. factor < 0.100000E-10


    -----------------------------------------------
     TWO ELECTRON CONTRIBUTIONS TO ENERGY GRADIENT 
    -----------------------------------------------

 setting up bound for integral derivative estimation

 increment for numerical differentiation : 0.00050000

 biggest AO integral is expected to be    21.668154127
 biggest cartesian 1st derivative AO integral is expected to be    83.347447328

 biggest 1-particle AO density matrix element is expected to be    3.2070041795

 core memory to be involved in 2e-gradient :
   symmetry shell pair data              :         1
   two particle density+dens. estimates  :      8556
   derivative integrals                  :      8498
   derivative integral bound             :     21780
   totally                               :     30276


 setting up bound for integral derivative estimation

 increment for numerical differentiation : 0.00050000

 biggest AO integral is expected to be    21.668154127
 biggest cartesian 1st derivative AO integral is expected to be    83.347447328

 2e-integral 1st. derivatives will be neglected if expon. factor < 0.100000E-06
 outer boundary for 2e-integral derivative neglection is 0.162050E-08

 Integrated ground state density     :   161.9999976867157    


          ------------------------------------------------
           cartesian gradient of the energy (hartree/bohr)
          ------------------------------------------------

  ATOM      1 o           2 c           3 c           4 c           5 c 
dE/dx -0.2335951D-02  0.2372714D-02 -0.4467224D-03  0.6550940D-03  0.7879206D-03
dE/dy  0.1698780D-02 -0.1767711D-02  0.4394286D-03 -0.5252673D-03 -0.4058650D-03
dE/dz -0.1144978D-03  0.2529532D-03 -0.1507218D-03  0.6511287D-04  0.2586634D-03

  ATOM      6 c           7 c           8 s           9 c          10 n 
dE/dx -0.8201321D-03  0.8642723D-03 -0.6499732D-03  0.8763459D-03 -0.1485590D-02
dE/dy  0.9157972D-03 -0.8010880D-03  0.6915893D-03 -0.6717939D-03  0.4610545D-03
dE/dz -0.2076980D-03  0.4198120D-04 -0.1786423D-03  0.3051427D-03 -0.3557853D-03

  ATOM     11 c          12 s          13 n          14 c          15 c 
dE/dx  0.1540396D-02 -0.6337608D-03  0.8518808D-03 -0.5423908D-02  0.1909786D-02
dE/dy -0.1245418D-03  0.1204065D-02 -0.1698154D-02 -0.9293563D-04 -0.2425143D-02
dE/dz  0.1364153D-03 -0.5088610D-04  0.2413550D-03 -0.1171986D-02  0.1766696D-02

  ATOM     16 h          17 h          18 o          19 br         20 h 
dE/dx -0.1136363D-02 -0.3527851D-03  0.3420885D-02  0.4272342D-04  0.8973519D-06
dE/dy  0.7393764D-03  0.5869676D-03  0.1853323D-02  0.1055231D-03 -0.2182474D-03
dE/dz -0.1900537D-02  0.6058949D-03  0.3948178D-03  0.2320170D-04  0.5952636D-04

  ATOM     21 h 
dE/dx -0.5041625D-04
dE/dy  0.2232204D-04
dE/dz -0.2130212D-04
 
 resulting FORCE  (fx,fy,fz) = (-.127D-04,-.125D-04,-.296D-06)
 resulting MOMENT (mx,my,mz) = (0.327D-04,-.121D-04,0.463D-04)


 **********************************************************************
  |maximum component of gradient| : 0.54239082E-02  (atom 14 c )       
   gradient norm                  : 0.99957134E-02
 **********************************************************************

 exx =       0.002515 eyy =       0.002624 ezz =      -0.004206
 eyz =       0.000269 exz =      -0.001240 exy =       0.004410


 <getgrd> : data group $grad  is missing 

   ***  cartesian gradients written onto <gradient>  ***
 
 
 
 ==============================================================================
                           electrostatic moments
 ==============================================================================

 reference point for electrostatic moments:    0.00000   0.00000   0.00000

 
              nuc           gs,e       ->  gs,tot          excit     ->  total
 ------------------------------------------------------------------------------
                          charge      
 ------------------------------------------------------------------------------
         161.000000    -162.000000      -1.000000       0.000000      -1.000000
 
 ------------------------------------------------------------------------------
                       dipole moment  
 ------------------------------------------------------------------------------
   x    -632.574151     637.596756       5.022604      -1.240387       3.782218
   y     777.341656    -783.500041      -6.158385       1.271670      -4.886715
   z       0.881379      -0.891817      -0.010438       0.004033      -0.006405
 
   | dipole moment | =     6.1794 a.u. =    15.7065 debye 
 
 ------------------------------------------------------------------------------
                     quadrupole moment
 ------------------------------------------------------------------------------
  xx    7670.269851   -7844.924674    -174.654823       2.050377    -172.604446
  yy    5802.639074   -5939.256697    -136.617624      13.597305    -123.020319
  zz       5.693299     -98.500266     -92.806967       0.200483     -92.606484
  xy   -4802.764205    4837.423827      34.659622     -12.136782      22.522840
  xz      -7.405415       7.417504       0.012090      -0.028226      -0.016136
  yz      10.948300     -11.035958      -0.087658       0.029498      -0.058160
 
     1/3  trace=    -129.410416
     anisotropy=      80.084184
 
 ==============================================================================
 


    ------------------------------------------------------------------------
         total  cpu-time :  8 minutes and 23 seconds
         total wall-time :  8 minutes and 23 seconds
    ------------------------------------------------------------------------

   ****  egrad : all done  ****


    2018-02-09 11:53:33.641 

$dipole from egrad
  x     3.78221787210271    y    -4.88671493830532    z    -0.00640539136379    a.u.
   | dipole | =   15.7066303593  debye
/work/bdnguye2/luc_project/7_brluc/ex_geo_opt/save/numforce/KraftWerk/p001
