 operating system is UNIX !

 ridft (missouri) : TURBOMOLE V7.2 ( 21454 ) 4 Oct 2017 at 12:48:15
 Copyright (C) 2017 TURBOMOLE GmbH, Karlsruhe


    2018-02-09 12:03:47.980 



                                  r i d f t

                        DFT program with RI approximation 
                                for coulomb part 




                                                 
                                 References:     
                                                 
          TURBOMOLE:                             
              R. Ahlrichs, M. Baer, M. Haeser, H. Horn, and
              C. Koelmel
              Electronic structure calculations on workstation
              computers: the program system TURBOMOLE
              Chem. Phys. Lett. 162: 165 (1989)
          Density Functional:                              
              O. Treutler and R. Ahlrichs                      
              Efficient Molecular Numerical Integration Schemes
              J. Chem. Phys. 102: 346 (1995)                   
          Parallel Version:                                
              Performance of parallel TURBOMOLE for Density    
              Functional Calculations                          
              M. v. Arnim and R. Ahlrichs                      
              J. Comp. Chem. 19: 1746 (1998)                   
          RI-J Method:                                     
              Auxiliary Basis Sets to approximate Coulomb      
              Potentials                                       
              Chem. Phys. Lett. 240: 283 (1995)                
              K. Eichkorn, O. Treutler, H. Oehm, M. Haeser     
              and R. Ahlrichs                                  
              Chem. Phys. Lett. 242: 652 (1995)                
                                                           
              Auxiliary Basis Sets for Main Row Atoms and their
              Use to approximate Coulomb Potentials            
              K. Eichkorn, F. Weigend, O. Treutler and         
              R. Ahlrichs                                      
              Theo. Chem. Acc. 97: 119 (1997)                   
                                                           
              Accurate Coulomb-fitting basis sets for H to Rn 
              F. Weigend                                        
              Phys. Chem. Chem. Phys. 8: 1057 (2006)            
                                                           
          Multipole accelerated RI-J (MARI-J):             
              Fast evaluation of the Coulomb potential for     
              electron densities using multipole accelerated   
              resolution of identity approximation             
              M. Sierka, A. Hogekamp and R. Ahlrichs           
              J. Chem. Phys. 118: 9136 (2003)                  
          RI-JK Method:                                     
              A fully direct RI-HF algorithm: Implementation,
              optimised auxiliary basis sets, demonstration of
              accuracy and efficiency                         
              F. Weigend                                      
              Phys. Chem. Chem. Phys. 4: 4285 (2002)           
          Two-component HF and DFT with spin-orbit coupling:  
              Self-consistent treatment of spin-orbit         
              interactions with efficient Hartree-Fock and    
              density functional methods                      
              M. K. Armbruster, F. Weigend, C. van Wüllen and 
              W. Klopper                                      
              Phys. Chem. Chem. Phys. 10: 1748 (2008)         
          Relativistic all-electron 2c calculations           
              An efficient implementation of two-component    
              relativistic exact-decoupling methods for large 
              molecules                                       
              D. Peng, N. Middendorf, F. Weigend, M. Reiher   
              J. Chem. Phys. 138, 184105 (2013)               
                                         




              +--------------------------------------------------+
              |      general information about current run       |
              +--------------------------------------------------+

 
 PBE0 hybrid functional
 exchange:    3/4 (LDA+PBE) + 1/4 HF
 correlation: LDA (PW) + PBE
 A Hybrid-DFT calculation using the RI-J approximation will be carried out.
 Allocatable memory for RI due to $ricore (MB):                  5000


              +--------------------------------------------------+
              | Atomic coordinate, charge and isotop information |
              +--------------------------------------------------+

                    atomic coordinates            atom    charge  isotop
        -12.81258243    6.80784574    0.00786555    o      8.000     0
        -10.86552191    5.50765549    0.00452194    c      6.000     0
         -8.32810896    6.66336464    0.01170495    c      6.000     0
         -6.09705689    5.19295995    0.00257812    c      6.000     0
         -6.19369560    2.52721283   -0.00428470    c      6.000     0
         -8.60025852    1.36883008   -0.01433816    c      6.000     0
        -10.80407235    2.76786208   -0.00998939    c      6.000     0
         -3.01796232    6.21629109    0.00887863    s     16.000     0
         -2.04442905    3.03359337   -0.00405474    c      6.000     0
         -3.85579129    1.35588218   -0.00523551    n      7.000     0
          0.62701852    2.55456828   -0.00088120    c      6.000     0
          1.62528428   -0.65192437   -0.00871233    s     16.000     0
          2.37376697    4.31201150    0.00935822    n      7.000     0
          4.77965960    3.37777211    0.00367278    c      6.000     0
          4.85479708    0.44187154   -0.00407061    c      6.000     0
          5.87908262   -0.23288416    1.67348808    h      1.000     0
          5.88452940   -0.21898994   -1.69121529    h      1.000     0
          6.73238486    4.59821216    0.01039821    o      8.000     0
         -8.16270094   10.16660877    0.02400473    br    35.000     0
         -8.66996999   -0.69628704   -0.02067223    h      1.000     0
        -12.64561475    1.83497169   -0.00918144    h      1.000     0
 
       center of nuclear mass  :   -4.07422310    5.04274454    0.00622701
       center of nuclear charge:   -3.92903797    4.82662016    0.00546192

              +--------------------------------------------------+
              |               basis set information              |
              +--------------------------------------------------+

              we will work with the 1s 3p 5d 7f 9g ... basis set
              ...i.e. with spherical basis functions...

   type   atoms  prim   cont   basis
   ---------------------------------------------------------------------------
    o        2     24     14   def2-SV(P)   [3s2p1d|7s4p1d]
    c       10     24     14   def2-SV(P)   [3s2p1d|7s4p1d]
    s        2     36     18   def2-SV(P)   [4s3p1d|10s7p1d]
    n        2     24     14   def2-SV(P)   [3s2p1d|7s4p1d]
    h        4      4      2   def2-SV(P)   [2s|4s]
    br       1     74     32   def2-SV(P)   [5s4p3d|14s10p6d]
   ---------------------------------------------------------------------------
   total:   21    498    272
   ---------------------------------------------------------------------------

   total number of primitive shells          :   88
   total number of contracted shells         :  120
   total number of cartesian basis functions :  291
   total number of SCF-basis functions       :  272


 integral neglect threshold       :  0.11E-10
 integral storage threshold THIZE :  0.10E-04
 integral storage threshold THIME :         5

 RI-J AUXILIARY BASIS SET information:

              we will work with the 1s 3p 5d 7f 9g ... basis set
              ...i.e. with spherical basis functions...

   type   atoms  prim   cont   basis
   ---------------------------------------------------------------------------
    o        2     70     49   def2-SV(P)   [6s4p3d1f1g|12s5p4d2f1g]
    c       10     70     49   def2-SV(P)   [6s4p3d1f1g|12s5p4d2f1g]
    s        2     77     51   def2-SV(P)   [8s4p3d1f1g|14s5p5d2f1g]
    n        2     70     49   def2-SV(P)   [6s4p3d1f1g|12s5p4d2f1g]
    h        4     16     11   def2-SV(P)   [3s1p1d|5s2p1d]
    br       1     89     58   def2-SV(P)   [8s4p3d2f1g|19s5p5d3f1g]
   ---------------------------------------------------------------------------
   total:   21   1287    890
   ---------------------------------------------------------------------------

   total number of primitive shells          :  140
   total number of contracted shells         :  282
   total number of cartesian basis functions : 1101
   total number of SCF-basis functions       :  890


 symmetry group of the molecule :   c1 

 the group has the following generators :
   c1(z)

    1 symmetry operations found

 there are 1 real representations :   a   

 maximum number of shells which are related by symmetry :  1


    mo occupation :
   irrep   mo's   occupied
    a      272       81
 
 number of basis functions   :                    272
 number of occupied orbitals :                     81
 
  
           ------------------
           density functional
           ------------------
 PBE0 hybrid functional
 exchange:    3/4 (LDA+PBE) + 1/4 HF
 correlation: LDA (PW) + PBE

 iterations will be done with small grid
  
 spherical integration : Lebedev's spherical grid
 spherical gridsize    :                     5
    i.e. gridpoints    :                   590
 value for diffuse not defined
 radial integration    : Chebyshev 2nd kind (scaling 3)
 radial gridsize       :                     8
 integration cells     :                    21
 partition function    : becke
 partition sharpness   :                     3
  

 biggest AO integral is expected to be    21.668154127
  
           ------------------------
               RI-J - INFORMATION
           ------------------------
 Contributions to RI integral batches: 
  neglected integral batches:                  2258
  direct contribution:                            0
  memory contribution:                  5002
 Memory core needed for (P|Q) and Cholesky      7 MByte
 Memory core minimum needed except of (P|Q)     1 MByte
 Total minimum memory core needed (sum)         7 MByte
  
 ****************************************
 Memory allocated for RI-J   249 MByte
 ****************************************
                                            

          ------------------------
          nuclear repulsion energy  :   1710.77913142    
          ------------------------


         -----------------
         -S,T+V- integrals
         -----------------

 1e-integrals will be neglected if expon. factor < 0.114844E-11
 
   Difference densities algorithm switched on.
   The maximal number of linear combinations of
   difference densities is                    20 .

 DIIS switched on: error vector is FDS-SDF
 Max. Iterations for DIIS is     :   4
 DIIS matrix (see manual) 
    Scaling factor of diagonals  :  1.200
    threshold for scaling factor :  0.000

 scf convergence criterion : increment of total energy < .1000000D-06
                  and increment of one-electron energy < .1000000D-03

  MOs are in ASCII format !


 automatic virtual orbital shift switched on 
      shift if e(lumo)-e(homo) < 0.10000000    


 reading orbital data $scfmo  from file mos
 orbital characterization : scfconv=7

 dump of DSCF restart information has been disabled !


 Starting SCF iterations

          Overall gridpoints after grid construction =        122126

 ITERATION  ENERGY          1e-ENERGY        2e-ENERGY     NORM[dD(SAO)]  TOL
   1  -4011.7257402527    -8982.3954544     3259.8905828    0.000D+00 0.115D-10
                            Exc = -172.724605130     Coul =  3488.27369846    
                            exK = -55.6585105719    
                              N = 162.00000322    
                            current damping = 0.700
 
          max. resid. norm for Fia-block=  3.652D-03 for orbital      1a         
          max. resid. fock norm         =  7.634D-03 for orbital      1a         

 ITERATION  ENERGY          1e-ENERGY        2e-ENERGY     NORM[dD(SAO)]  TOL
   2  -4011.7257728528    -8982.3983199     3259.8934156    0.176D-01 0.726D-11
                            Exc = -172.725087950      Eck =  3432.61850355    
                              N = 162.00000325    
                            current damping = 0.650
 
          Norm of current diis error: 0.65442E-02
          max. resid. norm for Fia-block=  1.504D-03 for orbital      1a         
          max. resid. fock norm         =  3.143D-03 for orbital      1a         

 ITERATION  ENERGY          1e-ENERGY        2e-ENERGY     NORM[dD(SAO)]  TOL
   3  -4011.7257785508    -8982.3939391     3259.8890291    0.555D-02 0.564D-11
                            Exc = -172.725169368      Eck =  3432.61419846    
                              N = 162.00000323    
                            current damping = 0.600
 
          Norm of current diis error: 0.39973E-02
          max. resid. norm for Fia-block=  5.925D-04 for orbital      1a         
          max. resid. fock norm         =  1.238D-03 for orbital      1a         

 ITERATION  ENERGY          1e-ENERGY        2e-ENERGY     NORM[dD(SAO)]  TOL
   4  -4011.7257808135    -8982.4020236     3259.8971114    0.219D-02 0.524D-11
                            Exc = -172.725074008      Eck =  3432.62218541    
                              N = 162.00000326    
                            current damping = 0.650
 
          Norm of current diis error: 0.19896E-02
          max. resid. norm for Fia-block=  2.222D-04 for orbital      1a         
          max. resid. fock norm         =  4.644D-04 for orbital      1a         

 ITERATION  ENERGY          1e-ENERGY        2e-ENERGY     NORM[dD(SAO)]  TOL
   5  -4011.7257814916    -8982.3982591     3259.8933462    0.929D-03 0.504D-11
                            Exc = -172.725266178      Eck =  3432.61861241    
                              N = 162.00000325    
                            current damping = 0.700
 
          Norm of current diis error: 0.80608E-03
          max. resid. norm for Fia-block=  8.753D-05 for orbital      1a         
          max. resid. fock norm         =  1.829D-04 for orbital      1a         
          mo-orthogonalization: Cholesky decomposition

 ENERGY CONVERGED !

          Overall gridpoints after grid construction =        372375

 ITERATION  ENERGY          1e-ENERGY        2e-ENERGY     NORM[dD(SAO)]  TOL
   6  -4011.7257792189    -8982.3983616     3259.8934510    0.350D-03 0.489D-11
                            Exc = -172.725212890      Eck =  3432.61866389    
                              N = 161.99999768    
                            current damping = 0.750
 
          Norm of current diis error: 0.24470E-03
          max. resid. norm for Fia-block=  3.604D-05 for orbital      1a         
          max. resid. fock norm         =  7.533D-05 for orbital      1a         

 End of SCF iterations

   convergence criteria satisfied after     6 iterations


                  ------------------------------------------ 
                 |  total energy      =  -4011.72577921892  |
                  ------------------------------------------ 
                 :  kinetic energy    =   4002.29067677376  :
                 :  potential energy  =  -8014.01645599268  :
                 :  virial theorem    =      1.99764811880  :
                 :  wavefunction norm =      1.00000000000  :
                  .......................................... 


 <geterg> : there is no data group $energy 


 orbitals $scfmo  will be written to file mos

    irrep                 77a         78a         79a         80a         81a   
 eigenvalues H         -0.16907    -0.16281    -0.12912    -0.11994    -0.07403
            eV          -4.6008     -4.4303     -3.5136     -3.2637     -2.0145
 occupation              2.0000      2.0000      2.0000      2.0000      2.0000 

    irrep                 82a         83a         84a         85a         86a   
 eigenvalues H          0.01715     0.10863     0.11900     0.12849     0.13611
            eV           0.4667      2.9561      3.2381      3.4963      3.7038
 
 
 
 
 ==============================================================================
                           electrostatic moments
 ==============================================================================

 reference point for electrostatic moments:    0.00000   0.00000   0.00000

 
              nuc           elec       ->  total
 ------------------------------------------------------------------------------
                          charge      
 ------------------------------------------------------------------------------
         161.000000    -162.000000      -1.000000
 
 ------------------------------------------------------------------------------
                       dipole moment  
 ------------------------------------------------------------------------------
   x    -632.575114     637.596499       5.021385
   y     777.085846    -783.230525      -6.144678
   z       0.879368      -0.889539      -0.010171
 
   | dipole moment | =     7.9355 a.u. =    20.1699 debye 
 
 ------------------------------------------------------------------------------
                     quadrupole moment
 ------------------------------------------------------------------------------
  xx    7671.510493   -7845.984529    -174.474037
  yy    5799.311034   -5935.869271    -136.558238
  zz       5.689302     -98.501339     -92.812037
  xy   -4800.419956    4835.041803      34.621848
  xz      -6.674940       6.696239       0.021299
  yz      10.862859     -10.948705      -0.085846
 
     1/3  trace=    -134.614770
     anisotropy=      92.768802
 
 ==============================================================================
 


    ------------------------------------------------------------------------
         total  cpu-time :  1 minutes and 46 seconds
         total wall-time :  1 minutes and 46 seconds
    ------------------------------------------------------------------------

   ****  ridft : all done  ****


    2018-02-09 12:05:34.382 


 egrad (missouri) : TURBOMOLE V7.2 ( 21454 ) 4 Oct 2017 at 12:24:43
 Copyright (C) 2017 TURBOMOLE GmbH, Karlsruhe


    2018-02-09 12:05:34.401 




                               e g r a d

                             TURBOMOLE GmbH


             integral direct evaluation of excited state
                     and polarizability gradients
                 and first-order nonadiabatic couplings



          references (see also programs escf, dscf and ridft) 

          review 
          F. Furche and D. Rappoport,  
          "Density functional methods for excited states: 
          equilibrium structure and electronic spectra",
          ch. III of "Computational Photochemistry", ed. by 
          M. Olivucci, vol. 16 of "Theoretical and Computational 
          Chemistry", Elsevier, Amsterdam, 2005.

          nonorthonormal Krylov space methods 
          F. Furche, B. T. Krull, B. D. Nguyen, J. Kwon, 
          J. Chem. Phys. 144 (2016), 174105.

          RI-J method 
          D. Rappoport and F. Furche, 
          J. Chem. Phys. 122 (2005), 064105.

          Lagrangian method, implementation, benchmarks 
          F. Furche and R. Ahlrichs,
          J. Chem. Phys. 117 (2002), 7433;
          J. Chem. Phys. 121 (2004), 12772 (E).

          Polarizability derivatives, Raman intensities 
          D. Rappoport and F. Furche, 
          J. Chem. Phys. 126 (2007), 201104.

          First-order nonadiabatic couplings 
          R. Send and F. Furche, 
          J. Chem. Phys. 132 (2010), 044107.
                                     




              +--------------------------------------------------+
              | Atomic coordinate, charge and isotop information |
              +--------------------------------------------------+

                    atomic coordinates            atom    charge  isotop
        -12.81258243    6.80784574    0.00786555    o      8.000     0
        -10.86552191    5.50765549    0.00452194    c      6.000     0
         -8.32810896    6.66336464    0.01170495    c      6.000     0
         -6.09705689    5.19295995    0.00257812    c      6.000     0
         -6.19369560    2.52721283   -0.00428470    c      6.000     0
         -8.60025852    1.36883008   -0.01433816    c      6.000     0
        -10.80407235    2.76786208   -0.00998939    c      6.000     0
         -3.01796232    6.21629109    0.00887863    s     16.000     0
         -2.04442905    3.03359337   -0.00405474    c      6.000     0
         -3.85579129    1.35588218   -0.00523551    n      7.000     0
          0.62701852    2.55456828   -0.00088120    c      6.000     0
          1.62528428   -0.65192437   -0.00871233    s     16.000     0
          2.37376697    4.31201150    0.00935822    n      7.000     0
          4.77965960    3.37777211    0.00367278    c      6.000     0
          4.85479708    0.44187154   -0.00407061    c      6.000     0
          5.87908262   -0.23288416    1.67348808    h      1.000     0
          5.88452940   -0.21898994   -1.69121529    h      1.000     0
          6.73238486    4.59821216    0.01039821    o      8.000     0
         -8.16270094   10.16660877    0.02400473    br    35.000     0
         -8.66996999   -0.69628704   -0.02067223    h      1.000     0
        -12.64561475    1.83497169   -0.00918144    h      1.000     0
 
       center of nuclear mass  :   -4.07422310    5.04274454    0.00622701
       center of nuclear charge:   -3.92903797    4.82662016    0.00546192

              +--------------------------------------------------+
              |               basis set information              |
              +--------------------------------------------------+

              we will work with the 1s 3p 5d 7f 9g ... basis set
              ...i.e. with spherical basis functions...

   type   atoms  prim   cont   basis
   ---------------------------------------------------------------------------
    o        2     24     14   def2-SV(P)   [3s2p1d|7s4p1d]
    c       10     24     14   def2-SV(P)   [3s2p1d|7s4p1d]
    s        2     36     18   def2-SV(P)   [4s3p1d|10s7p1d]
    n        2     24     14   def2-SV(P)   [3s2p1d|7s4p1d]
    h        4      4      2   def2-SV(P)   [2s|4s]
    br       1     74     32   def2-SV(P)   [5s4p3d|14s10p6d]
   ---------------------------------------------------------------------------
   total:   21    498    272
   ---------------------------------------------------------------------------

   total number of primitive shells          :   88
   total number of contracted shells         :  120
   total number of cartesian basis functions :  291
   total number of SCF-basis functions       :  272


 residuum convergence criterium   :  0.10E-04


 integral neglect threshold       :  0.11E-10
 integral storage threshold THIZE :  0.10E-04
 integral storage threshold THIME :         5

 
             FOUND RI-J FLAG !
 
  
 AUXILIARY BASIS SET information:

              we will work with the 1s 3p 5d 7f 9g ... basis set
              ...i.e. with spherical basis functions...

   type   atoms  prim   cont   basis
   ---------------------------------------------------------------------------
    o        2     70     49   def2-SV(P)   [6s4p3d1f1g|12s5p4d2f1g]
    c       10     70     49   def2-SV(P)   [6s4p3d1f1g|12s5p4d2f1g]
    s        2     77     51   def2-SV(P)   [8s4p3d1f1g|14s5p5d2f1g]
    n        2     70     49   def2-SV(P)   [6s4p3d1f1g|12s5p4d2f1g]
    h        4     16     11   def2-SV(P)   [3s1p1d|5s2p1d]
    br       1     89     58   def2-SV(P)   [8s4p3d2f1g|19s5p5d3f1g]
   ---------------------------------------------------------------------------
   total:   21   1287    890
   ---------------------------------------------------------------------------

   total number of primitive shells          :  140
   total number of contracted shells         :  282
   total number of cartesian basis functions : 1101
   total number of SCF-basis functions       :  890

 RPA SINGLET-EXCITATION-CALCULATION 
 
             FOUND DFT-FLAG !
 

 symmetry group of the molecule :   c1 

 the group has the following generators :
   c1(z)

    1 symmetry operations found

 there are 1 real representations :   a   

 maximum number of shells which are related by symmetry :  1

 IRREP of excited state :   a   
 

 determining totally symmetric integral contributions 
    - equivalent to irreducible tensor elements - 
 which can be formed within each triple of representations :

             representation triple      contributions

              a     a     a               1

    mo occupation :
   irrep   mo's   occupied
    a      272       81
 
 number of basis functions   :                    272
 number of occupied orbitals :                     81
 
  
           ------------------
           density functional
           ------------------
 PBE0 hybrid functional
 exchange:    3/4 (LDA+PBE) + 1/4 HF
 correlation: LDA (PW) + PBE

 iterations will be done with small grid
  
 spherical integration : Lebedev's spherical grid
 spherical gridsize    :                     5
    i.e. gridpoints    :                   590
 value for diffuse not defined
 radial integration    : Chebyshev 2nd kind (scaling 3)
 radial gridsize       :                     8
 integration cells     :                    21
 partition function    : becke
 partition sharpness   :                     3
  
  
           ----------------------
               RI - INFORMATION
           ----------------------

 biggest AO integral is expected to be    21.668154127

 Threshold for integral neglect (rithr2):   0.11E-10
 Threshold for integral neglect (rithr1):   0.11E-10

 Contributions to RI integral batches: 
  neglected integral batches:                  2116
  direct contribution:                            0
  memory contribution:                  5144
 Core memory available (ricore)            5000 MiB
 Core memory needed for (P|Q) and Cholesky 7 MiB
 Core memory used for integrals            250 MiB
  
 ****************************************
 Memory allocated for RIDFT 256 MiB
 ****************************************
                                            
  MOs are in ASCII format !


 reading orbital data $scfmo  from file mos
 orbital characterization : scfconv=7
 preparing numerical integration ....
          Overall gridpoints after grid construction =        122126

 Calculating ground state density on molecular grid

 Integral of ground state density: N =   162.0000032673676    



 number of non-frozen orbitals          :   272
 number of non-frozen occupied orbitals :    81



                        -------------------
                         excitation vector 
                        -------------------


 dimension of super-tensorspace: 2

          IRREP   tensor space dimension   number of roots

           a             15471                   1

 maximum number of Davidson iterations set to   25


 machine precision: 2.22D-16


 logfile sing_a    will be constructed


                       Nonorthonormal Krylov Space Iteration


 total number of roots to be determined:   1


 maximum core memory set to  5000 MB,
 corresponding to     3796 vectors in CAO basis


 maximum number of simultaneously treated vectors (including degeneracy):        2


 Iteration IRREP Converged      Max. Euclidean
                 roots          residual norm

    1       a        0        3.004885214393205D-02
 
    2       a        0        2.750337958384116D-02
 
    3       a        0        6.622189282320373D-02
 
    4       a        0        2.239860255904569D-02
 
    5       a        0        8.289526476644693D-03
 
    6       a        0        3.925374073570720D-03
 
    7       a        0        1.673460217619662D-03
 
    8       a        0        7.557075637814358D-04
 
    9       a        0        3.304249117273353D-04
 
   10       a        0        1.364017871820293D-04
 
   11       a        0        6.556474197588846D-05
 
   12       a        0        2.538999224751164D-05
 
   13       a        1        9.069821668574178D-06
 

 converged!


 Switching to fine grid

 preparing numerical integration ....
          Overall gridpoints after grid construction =        372375

 Calculating ground state density on molecular grid

 Integral of ground state density: N =   161.9999976845785    



 Iteration IRREP Converged      Max. Euclidean
                 roots          residual norm

   14       a        0        1.113281052638112D-05
 

 NOTE: Residual norms are larger than 1.00D-05 due to mgrid option!

 Eigenpairs written on logfile sing_a   



 IRREP   Vector     Eigenvalue           Euclidean residual norm

  a         1    8.360833180423415D-02    1.113281052638112D-05
 




                    Selection rules for point group c1  


 Subduction with respect to c1  :

    Polar vector representation: a                           

    Axial vector representation: a                           

    Symmetric second rank tensor representation: a                           




                            Ground state


 Total energy:                           -4011.725779219000    

 Charge:

               elec          nuc         total

          -162.000000   161.000000    -1.000000


 Electric dipole moment:

               elec          nuc         total   

    x      637.596499  -632.575114     5.021385    Norm:              7.935457
    y     -783.230525   777.085846    -6.144678
    z       -0.889539     0.879368    -0.010171    Norm / debye:     20.170073


 Electric quadrupole moment:

               elec          nuc         total   

   xx    -7845.984529  7671.510493  -174.474037
   yy    -5935.869271  5799.311034  -136.558238    1/3*trace:      -134.614770
   zz      -98.501339     5.689302   -92.812037
   xy     4835.041803 -4800.419956    34.621848
   xz        6.696239    -6.674940     0.021299    Anisotropy:       92.768802
   yz      -10.948705    10.862859    -0.085846



 ==============================================================================

                              I R R E P   a   

 ==============================================================================


 Excitation is electric dipole allowed

 Excitation is magnetic dipole allowed

 Excitation is electric quadrupole allowed




                         1 singlet a excitation


 Total energy:                           -4011.642170887196    

 Excitation energy:                      0.8360833180423415E-01

 Excitation energy / eV:                  2.275099439837826    

 Excitation energy / nm:                  544.9618677560142    

 Excitation energy / cm^(-1):             18349.90774617736    


 Oscillator strength:

    velocity representation:             0.3129564239777230    

    length representation:               0.3649539272028817    

    mixed representation:                0.3379508540907204    


 Rotatory strength:

    velocity representation:             0.3604276749440505E-05

    velocity rep. / 10^(-40)erg*cm^3:    0.2328536376749194    

    length representation:               0.3993642293576195E-05

    length rep. / 10^(-40)erg*cm^3:      0.2580085271687252    


 Dominant contributions:

      occ. orbital   energy / eV   virt. orbital     energy / eV   |coeff.|^2*100
       81 a              -2.01          82 a               0.47       91.8
 

 Change of electron number:

            -0.000000


 Electric transition dipole moment (velocity rep.):

    x        2.328428        Norm:                  2.369533
    y       -0.439443
    z       -0.000374        Norm / debye:          6.022798


 Electric transition dipole moment (length rep.):

    x        2.511618        Norm:                  2.558821
    y       -0.489225
    z       -0.000433        Norm / debye:          6.503923


 Magnetic transition dipole moment / i:

    x        0.000000        Norm:                  0.001087
    y       -0.000005
    z       -0.001087        Norm / Bohr mag.:      0.298006


 Electric quadrupole transition moment:

   xx      -18.810544
   yy       -4.501305        1/3*trace:            -7.734231
   zz        0.109157
   xy       11.344889
   xz        0.003599        Anisotropy:           26.040403
   yz       -0.006866
 

 Excited state no.    1 chosen for optimization


                       ----------------------
                        CPKS right-hand side 
                       ----------------------


          IRREP   tensor space dimension   number of roots

           a             15471                   1

                          ----------------
                           CPKS equations 
                          ----------------


 logfile dipl_a    will be constructed

 Switching to coarse grid

 preparing numerical integration ....
          Overall gridpoints after grid construction =        122126


                       Nonorthonormal Krylov Space Iteration


 total number of roots to be determined:   1


 maximum core memory set to  5000 MB,
 corresponding to     7544 vectors in CAO basis


 maximum number of simultaneously treated vectors (including degeneracy):        1


 Iteration IRREP Converged      Max. Euclidean
                 roots          residual norm

    1       a        0        1.086178847224856D-01
 
    2       a        0        4.863920104034641D-02
 
    3       a        0        2.231068010623858D-02
 
    4       a        0        9.407391287841306D-03
 
    5       a        0        3.532658828251503D-03
 
    6       a        0        1.232873553643159D-03
 
    7       a        0        4.716462412091584D-04
 
    8       a        0        1.619880190994847D-04
 
    9       a        0        8.153226170517931D-05
 
   10       a        0        1.899924385346029D-05
 
   11       a        1        8.027646693173304D-06
 

 converged!


 Switching to fine grid

 preparing numerical integration ....
          Overall gridpoints after grid construction =        372375

 Iteration IRREP Converged      Max. Euclidean
                 roots          residual norm

   12       a        0        1.623029415811247D-05
 

 NOTE: Residual norms are larger than 1.00D-05 due to mgrid option!

 Eigenpairs written on logfile dipl_a   



 IRREP   Vector     Frequency            Euclidean residual norm

  a         1    0.000000000000000D+00    1.623029415811247D-05
 

                          -------------------
                           relaxed densities 
                          -------------------


    ----------------------------------------
     S+T+V CONTRIBUTIONS TO ENERGY GRADIENT 
    ----------------------------------------

 1e-integral 1st. derivatives will be neglected if expon. factor < 0.100000E-10


    -----------------------------------------------
     TWO ELECTRON CONTRIBUTIONS TO ENERGY GRADIENT 
    -----------------------------------------------

 setting up bound for integral derivative estimation

 increment for numerical differentiation : 0.00050000

 biggest AO integral is expected to be    21.668154127
 biggest cartesian 1st derivative AO integral is expected to be    83.347447328

 biggest 1-particle AO density matrix element is expected to be    3.2069803976

 core memory to be involved in 2e-gradient :
   symmetry shell pair data              :         1
   two particle density+dens. estimates  :      8556
   derivative integrals                  :      8498
   derivative integral bound             :     21780
   totally                               :     30276


 setting up bound for integral derivative estimation

 increment for numerical differentiation : 0.00050000

 biggest AO integral is expected to be    21.668154127
 biggest cartesian 1st derivative AO integral is expected to be    83.347447328

 2e-integral 1st. derivatives will be neglected if expon. factor < 0.100000E-06
 outer boundary for 2e-integral derivative neglection is 0.162053E-08

 Integrated ground state density     :   161.9999976845769    


          ------------------------------------------------
           cartesian gradient of the energy (hartree/bohr)
          ------------------------------------------------

  ATOM      1 o           2 c           3 c           4 c           5 c 
dE/dx -0.1764888D-02  0.1907034D-02  0.1634920D-02 -0.8568493D-03  0.2307675D-02
dE/dy  0.8902271D-03  0.1186047D-02 -0.5418054D-03  0.3740268D-02 -0.1623286D-02
dE/dz -0.9548697D-04  0.1923669D-03  0.2487269D-03 -0.3895814D-03  0.3447735D-03

  ATOM      6 c           7 c           8 s           9 c          10 n 
dE/dx -0.2719138D-02 -0.5849247D-03 -0.7320290D-03 -0.2630001D-02  0.1568022D-02
dE/dy -0.5756155D-03 -0.3176780D-02 -0.1240843D-02 -0.1935746D-03  0.3018006D-03
dE/dz -0.3204207D-03 -0.2749144D-03  0.1725227D-03 -0.5064071D-03  0.2951556D-03

  ATOM     11 c          12 s          13 n          14 c          15 c 
dE/dx -0.1196276D-02  0.6111489D-03  0.1593437D-02 -0.1168941D-02  0.1982620D-02
dE/dy  0.1093543D-03 -0.2552038D-03  0.3626602D-03  0.7059899D-03 -0.2474384D-02
dE/dz -0.3943548D-04  0.1268837D-03  0.3539628D-03 -0.6603964D-03  0.1813366D-02

  ATOM     16 h          17 h          18 o          19 br         20 h 
dE/dx -0.1477605D-02 -0.3885790D-03  0.7650569D-03 -0.2289213D-04  0.1719172D-03
dE/dy  0.8102816D-03  0.4155274D-03  0.4228126D-03 -0.3313912D-03  0.1224001D-02
dE/dz -0.2246633D-02  0.6208313D-03  0.1648813D-03 -0.2604796D-04  0.5688035D-04

  ATOM     21 h 
dE/dx  0.9886083D-03
dE/dy  0.2293669D-03
dE/dz  0.1687838D-03
 
 resulting FORCE  (fx,fy,fz) = (-.117D-04,-.145D-04,-.188D-06)
 resulting MOMENT (mx,my,mz) = (0.248D-04,0.676D-05,0.687D-04)


 **********************************************************************
  |maximum component of gradient| : 0.37402680E-02  (atom  4 c )       
   gradient norm                  : 0.98841488E-02
 **********************************************************************

 exx =      -0.001112 eyy =       0.007996 ezz =      -0.004809
 eyz =       0.000704 exz =      -0.001783 exy =       0.000808


 <getgrd> : data group $grad  is missing 

   ***  cartesian gradients written onto <gradient>  ***
 
 
 
 ==============================================================================
                           electrostatic moments
 ==============================================================================

 reference point for electrostatic moments:    0.00000   0.00000   0.00000

 
              nuc           gs,e       ->  gs,tot          excit     ->  total
 ------------------------------------------------------------------------------
                          charge      
 ------------------------------------------------------------------------------
         161.000000    -162.000000      -1.000000       0.000000      -1.000000
 
 ------------------------------------------------------------------------------
                       dipole moment  
 ------------------------------------------------------------------------------
   x    -632.575114     637.596499       5.021385      -1.239102       3.782283
   y     777.085846    -783.230525      -6.144678       1.266463      -4.878215
   z       0.879368      -0.889539      -0.010171       0.004452      -0.005719
 
   | dipole moment | =     6.1727 a.u. =    15.6895 debye 
 
 ------------------------------------------------------------------------------
                     quadrupole moment
 ------------------------------------------------------------------------------
  xx    7671.510493   -7845.984529    -174.474037       2.095586    -172.378451
  yy    5799.311034   -5935.869271    -136.558238      13.539076    -123.019162
  zz       5.689302     -98.501339     -92.812037       0.197354     -92.614683
  xy   -4800.419956    4835.041803      34.621848     -12.125939      22.495909
  xz      -6.674940       6.696239       0.021299      -0.034197      -0.012898
  yz      10.862859     -10.948705      -0.085846       0.031517      -0.054329
 
     1/3  trace=    -129.337432
     anisotropy=      79.873164
 
 ==============================================================================
 


    ------------------------------------------------------------------------
         total  cpu-time :  9 minutes and  9 seconds
         total wall-time :  9 minutes and  9 seconds
    ------------------------------------------------------------------------

   ****  egrad : all done  ****


    2018-02-09 12:14:43.013 

$dipole from egrad
  x     3.78228303417688    y    -4.87821466317189    z    -0.00571902674638    a.u.
   | dipole | =   15.6896497996  debye
/work/bdnguye2/luc_project/7_brluc/ex_geo_opt/save/numforce/KraftWerk/p003
