 operating system is UNIX !

 ridft (missouri) : TURBOMOLE V7.2 ( 21454 ) 4 Oct 2017 at 12:48:15
 Copyright (C) 2017 TURBOMOLE GmbH, Karlsruhe


    2018-02-09 12:31:22.778 



                                  r i d f t

                        DFT program with RI approximation 
                                for coulomb part 




                                                 
                                 References:     
                                                 
          TURBOMOLE:                             
              R. Ahlrichs, M. Baer, M. Haeser, H. Horn, and
              C. Koelmel
              Electronic structure calculations on workstation
              computers: the program system TURBOMOLE
              Chem. Phys. Lett. 162: 165 (1989)
          Density Functional:                              
              O. Treutler and R. Ahlrichs                      
              Efficient Molecular Numerical Integration Schemes
              J. Chem. Phys. 102: 346 (1995)                   
          Parallel Version:                                
              Performance of parallel TURBOMOLE for Density    
              Functional Calculations                          
              M. v. Arnim and R. Ahlrichs                      
              J. Comp. Chem. 19: 1746 (1998)                   
          RI-J Method:                                     
              Auxiliary Basis Sets to approximate Coulomb      
              Potentials                                       
              Chem. Phys. Lett. 240: 283 (1995)                
              K. Eichkorn, O. Treutler, H. Oehm, M. Haeser     
              and R. Ahlrichs                                  
              Chem. Phys. Lett. 242: 652 (1995)                
                                                           
              Auxiliary Basis Sets for Main Row Atoms and their
              Use to approximate Coulomb Potentials            
              K. Eichkorn, F. Weigend, O. Treutler and         
              R. Ahlrichs                                      
              Theo. Chem. Acc. 97: 119 (1997)                   
                                                           
              Accurate Coulomb-fitting basis sets for H to Rn 
              F. Weigend                                        
              Phys. Chem. Chem. Phys. 8: 1057 (2006)            
                                                           
          Multipole accelerated RI-J (MARI-J):             
              Fast evaluation of the Coulomb potential for     
              electron densities using multipole accelerated   
              resolution of identity approximation             
              M. Sierka, A. Hogekamp and R. Ahlrichs           
              J. Chem. Phys. 118: 9136 (2003)                  
          RI-JK Method:                                     
              A fully direct RI-HF algorithm: Implementation,
              optimised auxiliary basis sets, demonstration of
              accuracy and efficiency                         
              F. Weigend                                      
              Phys. Chem. Chem. Phys. 4: 4285 (2002)           
          Two-component HF and DFT with spin-orbit coupling:  
              Self-consistent treatment of spin-orbit         
              interactions with efficient Hartree-Fock and    
              density functional methods                      
              M. K. Armbruster, F. Weigend, C. van Wüllen and 
              W. Klopper                                      
              Phys. Chem. Chem. Phys. 10: 1748 (2008)         
          Relativistic all-electron 2c calculations           
              An efficient implementation of two-component    
              relativistic exact-decoupling methods for large 
              molecules                                       
              D. Peng, N. Middendorf, F. Weigend, M. Reiher   
              J. Chem. Phys. 138, 184105 (2013)               
                                         




              +--------------------------------------------------+
              |      general information about current run       |
              +--------------------------------------------------+

 
 PBE0 hybrid functional
 exchange:    3/4 (LDA+PBE) + 1/4 HF
 correlation: LDA (PW) + PBE
 A Hybrid-DFT calculation using the RI-J approximation will be carried out.
 Allocatable memory for RI due to $ricore (MB):                  5000


              +--------------------------------------------------+
              | Atomic coordinate, charge and isotop information |
              +--------------------------------------------------+

                    atomic coordinates            atom    charge  isotop
        -12.81192636    6.80765102    0.00918004    o      8.000     0
        -10.86706599    5.50807704    0.00125251    c      6.000     0
         -8.33003697    6.65936110    0.00706426    c      6.000     0
         -6.09987011    5.18675328    0.00277716    c      6.000     0
         -6.19924315    2.53108256   -0.00693726    c      6.000     0
         -8.59370665    1.37018966   -0.00735699    c      6.000     0
        -10.79927640    2.77281429   -0.00372920    c      6.000     0
         -3.01653347    6.22165129    0.00690602    s     16.000     0
         -2.04156322    3.02975342   -0.00381802    c      6.000     0
         -3.85947827    1.35467433   -0.00738017    n      7.000     0
          0.62601005    2.55404216   -0.00065382    c      6.000     0
          1.62526234   -0.65068446   -0.00970112    s     16.000     0
          2.37467602    4.30927359    0.00832396    n      7.000     0
          4.77571550    3.37398214    0.00023084    c      6.000     0
          4.84890061    0.44091825   -0.01011132    c      6.000     0
          5.88175666   -0.23670047    1.67935096    h      1.000     0
          5.88567119   -0.21973317   -1.69013269    h      1.000     0
          6.72993925    4.59759164    0.00656004    o      8.000     0
         -8.16603428   10.16293840    0.01835056    br    35.000     0
         -8.67145268   -0.70247202   -0.01861867    h      1.000     0
        -12.64994693    1.84040408   -0.01422097    h      1.000     0
 
       center of nuclear mass  :   -4.07541911    5.04195223    0.00408972
       center of nuclear charge:   -3.93016050    4.82590827    0.00347057

              +--------------------------------------------------+
              |               basis set information              |
              +--------------------------------------------------+

              we will work with the 1s 3p 5d 7f 9g ... basis set
              ...i.e. with spherical basis functions...

   type   atoms  prim   cont   basis
   ---------------------------------------------------------------------------
    o        2     24     14   def2-SV(P)   [3s2p1d|7s4p1d]
    c       10     24     14   def2-SV(P)   [3s2p1d|7s4p1d]
    s        2     36     18   def2-SV(P)   [4s3p1d|10s7p1d]
    n        2     24     14   def2-SV(P)   [3s2p1d|7s4p1d]
    h        4      4      2   def2-SV(P)   [2s|4s]
    br       1     74     32   def2-SV(P)   [5s4p3d|14s10p6d]
   ---------------------------------------------------------------------------
   total:   21    498    272
   ---------------------------------------------------------------------------

   total number of primitive shells          :   88
   total number of contracted shells         :  120
   total number of cartesian basis functions :  291
   total number of SCF-basis functions       :  272


 integral neglect threshold       :  0.11E-10
 integral storage threshold THIZE :  0.10E-04
 integral storage threshold THIME :         5

 RI-J AUXILIARY BASIS SET information:

              we will work with the 1s 3p 5d 7f 9g ... basis set
              ...i.e. with spherical basis functions...

   type   atoms  prim   cont   basis
   ---------------------------------------------------------------------------
    o        2     70     49   def2-SV(P)   [6s4p3d1f1g|12s5p4d2f1g]
    c       10     70     49   def2-SV(P)   [6s4p3d1f1g|12s5p4d2f1g]
    s        2     77     51   def2-SV(P)   [8s4p3d1f1g|14s5p5d2f1g]
    n        2     70     49   def2-SV(P)   [6s4p3d1f1g|12s5p4d2f1g]
    h        4     16     11   def2-SV(P)   [3s1p1d|5s2p1d]
    br       1     89     58   def2-SV(P)   [8s4p3d2f1g|19s5p5d3f1g]
   ---------------------------------------------------------------------------
   total:   21   1287    890
   ---------------------------------------------------------------------------

   total number of primitive shells          :  140
   total number of contracted shells         :  282
   total number of cartesian basis functions : 1101
   total number of SCF-basis functions       :  890


 symmetry group of the molecule :   c1 

 the group has the following generators :
   c1(z)

    1 symmetry operations found

 there are 1 real representations :   a   

 maximum number of shells which are related by symmetry :  1


    mo occupation :
   irrep   mo's   occupied
    a      272       81
 
 number of basis functions   :                    272
 number of occupied orbitals :                     81
 
  
           ------------------
           density functional
           ------------------
 PBE0 hybrid functional
 exchange:    3/4 (LDA+PBE) + 1/4 HF
 correlation: LDA (PW) + PBE

 iterations will be done with small grid
  
 spherical integration : Lebedev's spherical grid
 spherical gridsize    :                     5
    i.e. gridpoints    :                   590
 value for diffuse not defined
 radial integration    : Chebyshev 2nd kind (scaling 3)
 radial gridsize       :                     8
 integration cells     :                    21
 partition function    : becke
 partition sharpness   :                     3
  

 biggest AO integral is expected to be    21.668154127
  
           ------------------------
               RI-J - INFORMATION
           ------------------------
 Contributions to RI integral batches: 
  neglected integral batches:                  2258
  direct contribution:                            0
  memory contribution:                  5002
 Memory core needed for (P|Q) and Cholesky      7 MByte
 Memory core minimum needed except of (P|Q)     1 MByte
 Total minimum memory core needed (sum)         7 MByte
  
 ****************************************
 Memory allocated for RI-J   249 MByte
 ****************************************
                                            

          ------------------------
          nuclear repulsion energy  :   1711.07337554    
          ------------------------


         -----------------
         -S,T+V- integrals
         -----------------

 1e-integrals will be neglected if expon. factor < 0.114844E-11
 
   Difference densities algorithm switched on.
   The maximal number of linear combinations of
   difference densities is                    20 .

 DIIS switched on: error vector is FDS-SDF
 Max. Iterations for DIIS is     :   4
 DIIS matrix (see manual) 
    Scaling factor of diagonals  :  1.200
    threshold for scaling factor :  0.000

 scf convergence criterion : increment of total energy < .1000000D-06
                  and increment of one-electron energy < .1000000D-03

  MOs are in ASCII format !


 automatic virtual orbital shift switched on 
      shift if e(lumo)-e(homo) < 0.10000000    


 reading orbital data $scfmo  from file mos
 orbital characterization : scfconv=7

 dump of DSCF restart information has been disabled !


 Starting SCF iterations

          Overall gridpoints after grid construction =        122133

 ITERATION  ENERGY          1e-ENERGY        2e-ENERGY     NORM[dD(SAO)]  TOL
   1  -4011.7253502400    -8982.9943992     3260.1956735    0.000D+00 0.115D-10
                            Exc = -172.725137458     Coul =  3488.57938564    
                            exK = -55.6585747279    
                              N = 162.00000373    
                            current damping = 0.700
 
          max. resid. norm for Fia-block=  2.829D-03 for orbital      1a         
          max. resid. fock norm         =  5.045D-03 for orbital      1a         

 ITERATION  ENERGY          1e-ENERGY        2e-ENERGY     NORM[dD(SAO)]  TOL
   2  -4011.7253914499    -8982.9881850     3260.1894180    0.178D-01 0.726D-11
                            Exc = -172.724621515      Eck =  3432.91403949    
                              N = 162.00000368    
                            current damping = 0.650
 
          Norm of current diis error: 0.66231E-02
          max. resid. norm for Fia-block=  1.165D-03 for orbital      1a         
          max. resid. fock norm         =  2.077D-03 for orbital      1a         

 ITERATION  ENERGY          1e-ENERGY        2e-ENERGY     NORM[dD(SAO)]  TOL
   3  -4011.7253989742    -8982.9798047     3260.1810302    0.541D-02 0.563D-11
                            Exc = -172.724716184      Eck =  3432.90574641    
                              N = 162.00000363    
                            current damping = 0.500
 
          Norm of current diis error: 0.44250E-02
          max. resid. norm for Fia-block=  4.592D-04 for orbital      1a         
          max. resid. fock norm         =  8.184D-04 for orbital      1a         

 ITERATION  ENERGY          1e-ENERGY        2e-ENERGY     NORM[dD(SAO)]  TOL
   4  -4011.7254021753    -8982.9842938     3260.1855161    0.174D-02 0.516D-11
                            Exc = -172.724593309      Eck =  3432.91010937    
                              N = 162.00000362    
                            current damping = 0.550
 
          Norm of current diis error: 0.12778E-02
          max. resid. norm for Fia-block=  1.531D-04 for orbital      1a         
          max. resid. fock norm         =  2.728D-04 for orbital      1a         

 ITERATION  ENERGY          1e-ENERGY        2e-ENERGY     NORM[dD(SAO)]  TOL
   5  -4011.7254024959    -8982.9828521     3260.1840741    0.762D-03 0.494D-11
                            Exc = -172.724608744      Eck =  3432.90868281    
                              N = 162.00000363    
                            current damping = 0.600
 
          Norm of current diis error: 0.60371E-03
          max. resid. norm for Fia-block=  5.433D-05 for orbital      1a         
          max. resid. fock norm         =  1.049D-04 for orbital    199a         
          mo-orthogonalization: Cholesky decomposition

 ITERATION  ENERGY          1e-ENERGY        2e-ENERGY     NORM[dD(SAO)]  TOL
   6  -4011.7254027986    -8982.9819426     3260.1831642    0.319D-03 0.480D-11
                            Exc = -172.724591033      Eck =  3432.90775525    
                              N = 162.00000364    
                            current damping = 0.450
 
          Norm of current diis error: 0.21560E-03
          max. resid. norm for Fia-block=  2.037D-05 for orbital      1a         
          max. resid. fock norm         =  3.829D-05 for orbital    263a         

 ITERATION  ENERGY          1e-ENERGY        2e-ENERGY     NORM[dD(SAO)]  TOL
   7  -4011.7254028043    -8982.9826309     3260.1838526    0.179D-03 0.471D-11
                            Exc = -172.724579032      Eck =  3432.90843161    
                              N = 162.00000364    
                            current damping = 0.500
 
          Norm of current diis error: 0.17157E-03
          max. resid. norm for Fia-block=  1.058D-05 for orbital     81a         
          max. resid. fock norm         =  2.057D-05 for orbital     41a         

 ENERGY CONVERGED !

          Overall gridpoints after grid construction =        372370

 ITERATION  ENERGY          1e-ENERGY        2e-ENERGY     NORM[dD(SAO)]  TOL
   8  -4011.7253991029    -8982.9824626     3260.1836879    0.575D-04 0.465D-11
                            Exc = -172.724589236      Eck =  3432.90827715    
                              N = 161.99999769    
                            current damping = 0.550
 
          Norm of current diis error: 0.74129E-04
          max. resid. norm for Fia-block=  4.892D-06 for orbital     76a         
          max. resid. fock norm         =  7.497D-06 for orbital    249a         

 End of SCF iterations

   convergence criteria satisfied after     8 iterations


                  ------------------------------------------ 
                 |  total energy      =  -4011.72539910291  |
                  ------------------------------------------ 
                 :  kinetic energy    =   4002.29052170672  :
                 :  potential energy  =  -8014.01592080963  :
                 :  virial theorem    =      1.99764817467  :
                 :  wavefunction norm =      1.00000000000  :
                  .......................................... 


 <geterg> : there is no data group $energy 


 orbitals $scfmo  will be written to file mos

    irrep                 77a         78a         79a         80a         81a   
 eigenvalues H         -0.16898    -0.16283    -0.12898    -0.12005    -0.07440
            eV          -4.5982     -4.4309     -3.5099     -3.2668     -2.0246
 occupation              2.0000      2.0000      2.0000      2.0000      2.0000 

    irrep                 82a         83a         84a         85a         86a   
 eigenvalues H          0.01645     0.10845     0.11880     0.12882     0.13503
            eV           0.4475      2.9510      3.2328      3.5053      3.6743
 
 
 
 
 ==============================================================================
                           electrostatic moments
 ==============================================================================

 reference point for electrostatic moments:    0.00000   0.00000   0.00000

 
              nuc           elec       ->  total
 ------------------------------------------------------------------------------
                          charge      
 ------------------------------------------------------------------------------
         161.000000    -162.000000      -1.000000
 
 ------------------------------------------------------------------------------
                       dipole moment  
 ------------------------------------------------------------------------------
   x    -632.755840     637.771827       5.015987
   y     776.971232    -783.119043      -6.147811
   z       0.558763      -0.570304      -0.011541
 
   | dipole moment | =     7.9345 a.u. =    20.1674 debye 
 
 ------------------------------------------------------------------------------
                     quadrupole moment
 ------------------------------------------------------------------------------
  xx    7672.355643   -7846.889393    -174.533749
  yy    5796.827347   -5933.383869    -136.556522
  zz       5.695013     -98.510147     -92.815135
  xy   -4801.230671    4835.775105      34.544434
  xz      -5.709651       5.764836       0.055185
  yz       8.279643      -8.361327      -0.081684
 
     1/3  trace=    -134.635136
     anisotropy=      92.718597
 
 ==============================================================================
 


    ------------------------------------------------------------------------
         total  cpu-time :  58.78 seconds
         total wall-time :  58.78 seconds
    ------------------------------------------------------------------------

   ****  ridft : all done  ****


    2018-02-09 12:32:21.551 


 egrad (missouri) : TURBOMOLE V7.2 ( 21454 ) 4 Oct 2017 at 12:24:43
 Copyright (C) 2017 TURBOMOLE GmbH, Karlsruhe


    2018-02-09 12:32:21.562 




                               e g r a d

                             TURBOMOLE GmbH


             integral direct evaluation of excited state
                     and polarizability gradients
                 and first-order nonadiabatic couplings



          references (see also programs escf, dscf and ridft) 

          review 
          F. Furche and D. Rappoport,  
          "Density functional methods for excited states: 
          equilibrium structure and electronic spectra",
          ch. III of "Computational Photochemistry", ed. by 
          M. Olivucci, vol. 16 of "Theoretical and Computational 
          Chemistry", Elsevier, Amsterdam, 2005.

          nonorthonormal Krylov space methods 
          F. Furche, B. T. Krull, B. D. Nguyen, J. Kwon, 
          J. Chem. Phys. 144 (2016), 174105.

          RI-J method 
          D. Rappoport and F. Furche, 
          J. Chem. Phys. 122 (2005), 064105.

          Lagrangian method, implementation, benchmarks 
          F. Furche and R. Ahlrichs,
          J. Chem. Phys. 117 (2002), 7433;
          J. Chem. Phys. 121 (2004), 12772 (E).

          Polarizability derivatives, Raman intensities 
          D. Rappoport and F. Furche, 
          J. Chem. Phys. 126 (2007), 201104.

          First-order nonadiabatic couplings 
          R. Send and F. Furche, 
          J. Chem. Phys. 132 (2010), 044107.
                                     




              +--------------------------------------------------+
              | Atomic coordinate, charge and isotop information |
              +--------------------------------------------------+

                    atomic coordinates            atom    charge  isotop
        -12.81192636    6.80765102    0.00918004    o      8.000     0
        -10.86706599    5.50807704    0.00125251    c      6.000     0
         -8.33003697    6.65936110    0.00706426    c      6.000     0
         -6.09987011    5.18675328    0.00277716    c      6.000     0
         -6.19924315    2.53108256   -0.00693726    c      6.000     0
         -8.59370665    1.37018966   -0.00735699    c      6.000     0
        -10.79927640    2.77281429   -0.00372920    c      6.000     0
         -3.01653347    6.22165129    0.00690602    s     16.000     0
         -2.04156322    3.02975342   -0.00381802    c      6.000     0
         -3.85947827    1.35467433   -0.00738017    n      7.000     0
          0.62601005    2.55404216   -0.00065382    c      6.000     0
          1.62526234   -0.65068446   -0.00970112    s     16.000     0
          2.37467602    4.30927359    0.00832396    n      7.000     0
          4.77571550    3.37398214    0.00023084    c      6.000     0
          4.84890061    0.44091825   -0.01011132    c      6.000     0
          5.88175666   -0.23670047    1.67935096    h      1.000     0
          5.88567119   -0.21973317   -1.69013269    h      1.000     0
          6.72993925    4.59759164    0.00656004    o      8.000     0
         -8.16603428   10.16293840    0.01835056    br    35.000     0
         -8.67145268   -0.70247202   -0.01861867    h      1.000     0
        -12.64994693    1.84040408   -0.01422097    h      1.000     0
 
       center of nuclear mass  :   -4.07541911    5.04195223    0.00408972
       center of nuclear charge:   -3.93016050    4.82590827    0.00347057

              +--------------------------------------------------+
              |               basis set information              |
              +--------------------------------------------------+

              we will work with the 1s 3p 5d 7f 9g ... basis set
              ...i.e. with spherical basis functions...

   type   atoms  prim   cont   basis
   ---------------------------------------------------------------------------
    o        2     24     14   def2-SV(P)   [3s2p1d|7s4p1d]
    c       10     24     14   def2-SV(P)   [3s2p1d|7s4p1d]
    s        2     36     18   def2-SV(P)   [4s3p1d|10s7p1d]
    n        2     24     14   def2-SV(P)   [3s2p1d|7s4p1d]
    h        4      4      2   def2-SV(P)   [2s|4s]
    br       1     74     32   def2-SV(P)   [5s4p3d|14s10p6d]
   ---------------------------------------------------------------------------
   total:   21    498    272
   ---------------------------------------------------------------------------

   total number of primitive shells          :   88
   total number of contracted shells         :  120
   total number of cartesian basis functions :  291
   total number of SCF-basis functions       :  272


 residuum convergence criterium   :  0.10E-04


 integral neglect threshold       :  0.11E-10
 integral storage threshold THIZE :  0.10E-04
 integral storage threshold THIME :         5

 
             FOUND RI-J FLAG !
 
  
 AUXILIARY BASIS SET information:

              we will work with the 1s 3p 5d 7f 9g ... basis set
              ...i.e. with spherical basis functions...

   type   atoms  prim   cont   basis
   ---------------------------------------------------------------------------
    o        2     70     49   def2-SV(P)   [6s4p3d1f1g|12s5p4d2f1g]
    c       10     70     49   def2-SV(P)   [6s4p3d1f1g|12s5p4d2f1g]
    s        2     77     51   def2-SV(P)   [8s4p3d1f1g|14s5p5d2f1g]
    n        2     70     49   def2-SV(P)   [6s4p3d1f1g|12s5p4d2f1g]
    h        4     16     11   def2-SV(P)   [3s1p1d|5s2p1d]
    br       1     89     58   def2-SV(P)   [8s4p3d2f1g|19s5p5d3f1g]
   ---------------------------------------------------------------------------
   total:   21   1287    890
   ---------------------------------------------------------------------------

   total number of primitive shells          :  140
   total number of contracted shells         :  282
   total number of cartesian basis functions : 1101
   total number of SCF-basis functions       :  890

 RPA SINGLET-EXCITATION-CALCULATION 
 
             FOUND DFT-FLAG !
 

 symmetry group of the molecule :   c1 

 the group has the following generators :
   c1(z)

    1 symmetry operations found

 there are 1 real representations :   a   

 maximum number of shells which are related by symmetry :  1

 IRREP of excited state :   a   
 

 determining totally symmetric integral contributions 
    - equivalent to irreducible tensor elements - 
 which can be formed within each triple of representations :

             representation triple      contributions

              a     a     a               1

    mo occupation :
   irrep   mo's   occupied
    a      272       81
 
 number of basis functions   :                    272
 number of occupied orbitals :                     81
 
  
           ------------------
           density functional
           ------------------
 PBE0 hybrid functional
 exchange:    3/4 (LDA+PBE) + 1/4 HF
 correlation: LDA (PW) + PBE

 iterations will be done with small grid
  
 spherical integration : Lebedev's spherical grid
 spherical gridsize    :                     5
    i.e. gridpoints    :                   590
 value for diffuse not defined
 radial integration    : Chebyshev 2nd kind (scaling 3)
 radial gridsize       :                     8
 integration cells     :                    21
 partition function    : becke
 partition sharpness   :                     3
  
  
           ----------------------
               RI - INFORMATION
           ----------------------

 biggest AO integral is expected to be    21.668154127

 Threshold for integral neglect (rithr2):   0.11E-10
 Threshold for integral neglect (rithr1):   0.11E-10

 Contributions to RI integral batches: 
  neglected integral batches:                  2115
  direct contribution:                            0
  memory contribution:                  5145
 Core memory available (ricore)            5000 MiB
 Core memory needed for (P|Q) and Cholesky 7 MiB
 Core memory used for integrals            250 MiB
  
 ****************************************
 Memory allocated for RIDFT 257 MiB
 ****************************************
                                            
  MOs are in ASCII format !


 reading orbital data $scfmo  from file mos
 orbital characterization : scfconv=7
 preparing numerical integration ....
          Overall gridpoints after grid construction =        122133

 Calculating ground state density on molecular grid

 Integral of ground state density: N =   162.0000036384821    



 number of non-frozen orbitals          :   272
 number of non-frozen occupied orbitals :    81



                        -------------------
                         excitation vector 
                        -------------------


 dimension of super-tensorspace: 2

          IRREP   tensor space dimension   number of roots

           a             15471                   1

 maximum number of Davidson iterations set to   25


 machine precision: 2.22D-16


 logfile sing_a    will be constructed


                       Nonorthonormal Krylov Space Iteration


 total number of roots to be determined:   1


 maximum core memory set to  5000 MB,
 corresponding to     3796 vectors in CAO basis


 maximum number of simultaneously treated vectors (including degeneracy):        2


 Iteration IRREP Converged      Max. Euclidean
                 roots          residual norm

    1       a        0        3.032993391302797D-02
 
    2       a        0        5.588512729636076D-02
 
    3       a        0        4.775840881950962D-02
 
    4       a        0        2.062559655369936D-02
 
    5       a        0        7.414197590031047D-03
 
    6       a        0        3.206699166573037D-03
 
    7       a        0        1.530353162727203D-03
 
    8       a        0        6.789621061299393D-04
 
    9       a        0        2.917634642158165D-04
 
   10       a        0        1.125603339088036D-04
 
   11       a        0        6.298849317602480D-05
 
   12       a        0        1.877210423117640D-05
 
   13       a        1        8.165513745455335D-06
 

 converged!


 Switching to fine grid

 preparing numerical integration ....
          Overall gridpoints after grid construction =        372370

 Calculating ground state density on molecular grid

 Integral of ground state density: N =   161.9999976875218    



 Iteration IRREP Converged      Max. Euclidean
                 roots          residual norm

   14       a        0        1.042853231604789D-05
 

 NOTE: Residual norms are larger than 1.00D-05 due to mgrid option!

 Eigenpairs written on logfile sing_a   



 IRREP   Vector     Eigenvalue           Euclidean residual norm

  a         1    8.324227353727190D-02    1.042853231604789D-05
 




                    Selection rules for point group c1  


 Subduction with respect to c1  :

    Polar vector representation: a                           

    Axial vector representation: a                           

    Symmetric second rank tensor representation: a                           




                            Ground state


 Total energy:                           -4011.725399103000    

 Charge:

               elec          nuc         total

          -162.000000   161.000000    -1.000000


 Electric dipole moment:

               elec          nuc         total   

    x      637.771827  -632.755840     5.015987    Norm:              7.934472
    y     -783.119043   776.971232    -6.147811
    z       -0.570304     0.558763    -0.011541    Norm / debye:     20.167568


 Electric quadrupole moment:

               elec          nuc         total   

   xx    -7846.889393  7672.355643  -174.533749
   yy    -5933.383869  5796.827347  -136.556522    1/3*trace:      -134.635136
   zz      -98.510147     5.695013   -92.815135
   xy     4835.775105 -4801.230671    34.544434
   xz        5.764836    -5.709651     0.055185    Anisotropy:       92.718597
   yz       -8.361327     8.279643    -0.081684



 ==============================================================================

                              I R R E P   a   

 ==============================================================================


 Excitation is electric dipole allowed

 Excitation is magnetic dipole allowed

 Excitation is electric quadrupole allowed




                         1 singlet a excitation


 Total energy:                           -4011.642156829463    

 Excitation energy:                      0.8324227353727190E-01

 Excitation energy / eV:                  2.265138483314213    

 Excitation energy / nm:                  547.3583399857395    

 Excitation energy / cm^(-1):             18269.56724322113    


 Oscillator strength:

    velocity representation:             0.3089393755678019    

    length representation:               0.3603085466508099    

    mixed representation:                0.3336313364153866    


 Rotatory strength:

    velocity representation:            -0.5070211259410854E-05

    velocity rep. / 10^(-40)erg*cm^3:   -0.3275600675551398    

    length representation:              -0.5417288807403942E-05

    length rep. / 10^(-40)erg*cm^3:     -0.3499829488219647    


 Dominant contributions:

      occ. orbital   energy / eV   virt. orbital     energy / eV   |coeff.|^2*100
       81 a              -2.02          82 a               0.45       91.5
 

 Change of electron number:

             0.000000


 Electric transition dipole moment (velocity rep.):

    x       -2.318229        Norm:                  2.359447
    y        0.439095
    z        0.000280        Norm / debye:          5.997162


 Electric transition dipole moment (length rep.):

    x       -2.500806        Norm:                  2.548068
    y        0.488484
    z        0.000277        Norm / debye:          6.476591


 Magnetic transition dipole moment / i:

    x        0.000003        Norm:                  0.001069
    y        0.000005
    z        0.001069        Norm / Bohr mag.:      0.292938


 Electric quadrupole transition moment:

   xx       18.758396
   yy        4.500551        1/3*trace:             7.716283
   zz       -0.110096
   xy      -11.309709
   xz       -0.005958        Anisotropy:           25.961719
   yz        0.006322
 

 Excited state no.    1 chosen for optimization


                       ----------------------
                        CPKS right-hand side 
                       ----------------------


          IRREP   tensor space dimension   number of roots

           a             15471                   1

                          ----------------
                           CPKS equations 
                          ----------------


 logfile dipl_a    will be constructed

 Switching to coarse grid

 preparing numerical integration ....
          Overall gridpoints after grid construction =        122133


                       Nonorthonormal Krylov Space Iteration


 total number of roots to be determined:   1


 maximum core memory set to  5000 MB,
 corresponding to     7544 vectors in CAO basis


 maximum number of simultaneously treated vectors (including degeneracy):        1


 Iteration IRREP Converged      Max. Euclidean
                 roots          residual norm

    1       a        0        1.087875830032134D-01
 
    2       a        0        4.856182123229416D-02
 
    3       a        0        2.237392476080176D-02
 
    4       a        0        9.454291960443402D-03
 
    5       a        0        3.560377760626046D-03
 
    6       a        0        1.242891868815119D-03
 
    7       a        0        4.809904734429867D-04
 
    8       a        0        1.652797951794413D-04
 
    9       a        0        8.251033923078190D-05
 
   10       a        0        1.910750040999818D-05
 
   11       a        1        8.096564264678012D-06
 

 converged!


 Switching to fine grid

 preparing numerical integration ....
          Overall gridpoints after grid construction =        372370

 Iteration IRREP Converged      Max. Euclidean
                 roots          residual norm

   12       a        0        1.626327638604755D-05
 

 NOTE: Residual norms are larger than 1.00D-05 due to mgrid option!

 Eigenpairs written on logfile dipl_a   



 IRREP   Vector     Frequency            Euclidean residual norm

  a         1    0.000000000000000D+00    1.626327638604755D-05
 

                          -------------------
                           relaxed densities 
                          -------------------


    ----------------------------------------
     S+T+V CONTRIBUTIONS TO ENERGY GRADIENT 
    ----------------------------------------

 1e-integral 1st. derivatives will be neglected if expon. factor < 0.100000E-10


    -----------------------------------------------
     TWO ELECTRON CONTRIBUTIONS TO ENERGY GRADIENT 
    -----------------------------------------------

 setting up bound for integral derivative estimation

 increment for numerical differentiation : 0.00050000

 biggest AO integral is expected to be    21.668154127
 biggest cartesian 1st derivative AO integral is expected to be    83.347447328

 biggest 1-particle AO density matrix element is expected to be    3.2069999383

 core memory to be involved in 2e-gradient :
   symmetry shell pair data              :         1
   two particle density+dens. estimates  :      8556
   derivative integrals                  :      8498
   derivative integral bound             :     21780
   totally                               :     30276


 setting up bound for integral derivative estimation

 increment for numerical differentiation : 0.00050000

 biggest AO integral is expected to be    21.668154127
 biggest cartesian 1st derivative AO integral is expected to be    83.347447328

 2e-integral 1st. derivatives will be neglected if expon. factor < 0.100000E-06
 outer boundary for 2e-integral derivative neglection is 0.162051E-08

 Integrated ground state density     :   161.9999976875212    


          ------------------------------------------------
           cartesian gradient of the energy (hartree/bohr)
          ------------------------------------------------

  ATOM      1 o           2 c           3 c           4 c           5 c 
dE/dx -0.2060292D-03  0.3548254D-03  0.1061212D-02 -0.2344168D-02 -0.3051339D-02
dE/dy  0.1799643D-04  0.1422134D-02 -0.1497323D-02 -0.1346215D-02  0.1623559D-02
dE/dz  0.2746153D-03 -0.6740627D-03  0.1622188D-03  0.9329760D-04 -0.4096454D-03

  ATOM      6 c           7 c           8 s           9 c          10 n 
dE/dx  0.2916953D-02  0.2086925D-02  0.6940369D-03  0.1227554D-02 -0.1294991D-03
dE/dy  0.2191575D-02  0.3621758D-03  0.1408691D-02 -0.1152140D-02 -0.1204642D-02
dE/dz  0.4077394D-03  0.4019058D-03  0.4761348D-04 -0.3145894D-03  0.2150639D-03

  ATOM     11 c          12 s          13 n          14 c          15 c 
dE/dx -0.1894688D-02  0.1493230D-02  0.3059640D-02 -0.4222120D-02 -0.1560689D-02
dE/dy  0.7565554D-03  0.6244804D-03 -0.4459078D-03 -0.8885534D-03 -0.1017254D-02
dE/dz  0.7025237D-05  0.3605576D-03  0.3142746D-03 -0.5832169D-03 -0.3219116D-02

  ATOM     16 h          17 h          18 o          19 br         20 h 
dE/dx  0.9514690D-03 -0.4937958D-03  0.2298932D-02 -0.2239243D-03 -0.3556731D-03
dE/dy -0.8031932D-03  0.7223192D-03  0.1833884D-02 -0.2769095D-03 -0.1698627D-02
dE/dz  0.1649679D-02  0.1438141D-02  0.1869642D-03 -0.1854133D-04 -0.1476491D-03

  ATOM     21 h 
dE/dx -0.1674777D-02
dE/dy -0.6462546D-03
dE/dz -0.1923672D-03
 
 resulting FORCE  (fx,fy,fz) = (-.119D-04,-.136D-04,-.909D-07)
 resulting MOMENT (mx,my,mz) = (-.341D-05,0.101D-04,0.628D-04)


 **********************************************************************
  |maximum component of gradient| : 0.42221196E-02  (atom 14 c )       
   gradient norm                  : 0.11052464E-01
 **********************************************************************

 exx =      -0.003510 eyy =       0.004571 ezz =       0.000379
 eyz =      -0.002542 exz =       0.002488 exy =       0.003199


 <getgrd> : data group $grad  is missing 

   ***  cartesian gradients written onto <gradient>  ***
 
 
 
 ==============================================================================
                           electrostatic moments
 ==============================================================================

 reference point for electrostatic moments:    0.00000   0.00000   0.00000

 
              nuc           gs,e       ->  gs,tot          excit     ->  total
 ------------------------------------------------------------------------------
                          charge      
 ------------------------------------------------------------------------------
         161.000000    -162.000000      -1.000000       0.000000      -1.000000
 
 ------------------------------------------------------------------------------
                       dipole moment  
 ------------------------------------------------------------------------------
   x    -632.755840     637.771827       5.015987      -1.236137       3.779850
   y     776.971232    -783.119043      -6.147811       1.267451      -4.880360
   z       0.558763      -0.570304      -0.011541       0.002903      -0.008638
 
   | dipole moment | =     6.1729 a.u. =    15.6901 debye 
 
 ------------------------------------------------------------------------------
                     quadrupole moment
 ------------------------------------------------------------------------------
  xx    7672.355643   -7846.889393    -174.533749       2.051377    -172.482373
  yy    5796.827347   -5933.383869    -136.556522      13.550194    -123.006328
  zz       5.695013     -98.510147     -92.815135       0.200090     -92.615045
  xy   -4801.230671    4835.775105      34.544434     -12.095622      22.448812
  xz      -5.709651       5.764836       0.055185      -0.023417       0.031768
  yz       8.279643      -8.361327      -0.081684       0.023682      -0.058002
 
     1/3  trace=    -129.367915
     anisotropy=      79.918772
 
 ==============================================================================
 


    ------------------------------------------------------------------------
         total  cpu-time :  6 minutes and  1 seconds
         total wall-time :  6 minutes and  1 seconds
    ------------------------------------------------------------------------

   ****  egrad : all done  ****


    2018-02-09 12:38:22.569 

$dipole from egrad
  x     3.77985027576801    y    -4.88035991534468    z    -0.00863841432295    a.u.
   | dipole | =   15.6901809107  debye
/work/bdnguye2/luc_project/7_brluc/ex_geo_opt/save/numforce/KraftWerk/p006
