 operating system is UNIX !

 ridft (missouri) : TURBOMOLE V7.2 ( 21454 ) 4 Oct 2017 at 12:48:15
 Copyright (C) 2017 TURBOMOLE GmbH, Karlsruhe


    2018-02-09 12:58:47.684 



                                  r i d f t

                        DFT program with RI approximation 
                                for coulomb part 




                                                 
                                 References:     
                                                 
          TURBOMOLE:                             
              R. Ahlrichs, M. Baer, M. Haeser, H. Horn, and
              C. Koelmel
              Electronic structure calculations on workstation
              computers: the program system TURBOMOLE
              Chem. Phys. Lett. 162: 165 (1989)
          Density Functional:                              
              O. Treutler and R. Ahlrichs                      
              Efficient Molecular Numerical Integration Schemes
              J. Chem. Phys. 102: 346 (1995)                   
          Parallel Version:                                
              Performance of parallel TURBOMOLE for Density    
              Functional Calculations                          
              M. v. Arnim and R. Ahlrichs                      
              J. Comp. Chem. 19: 1746 (1998)                   
          RI-J Method:                                     
              Auxiliary Basis Sets to approximate Coulomb      
              Potentials                                       
              Chem. Phys. Lett. 240: 283 (1995)                
              K. Eichkorn, O. Treutler, H. Oehm, M. Haeser     
              and R. Ahlrichs                                  
              Chem. Phys. Lett. 242: 652 (1995)                
                                                           
              Auxiliary Basis Sets for Main Row Atoms and their
              Use to approximate Coulomb Potentials            
              K. Eichkorn, F. Weigend, O. Treutler and         
              R. Ahlrichs                                      
              Theo. Chem. Acc. 97: 119 (1997)                   
                                                           
              Accurate Coulomb-fitting basis sets for H to Rn 
              F. Weigend                                        
              Phys. Chem. Chem. Phys. 8: 1057 (2006)            
                                                           
          Multipole accelerated RI-J (MARI-J):             
              Fast evaluation of the Coulomb potential for     
              electron densities using multipole accelerated   
              resolution of identity approximation             
              M. Sierka, A. Hogekamp and R. Ahlrichs           
              J. Chem. Phys. 118: 9136 (2003)                  
          RI-JK Method:                                     
              A fully direct RI-HF algorithm: Implementation,
              optimised auxiliary basis sets, demonstration of
              accuracy and efficiency                         
              F. Weigend                                      
              Phys. Chem. Chem. Phys. 4: 4285 (2002)           
          Two-component HF and DFT with spin-orbit coupling:  
              Self-consistent treatment of spin-orbit         
              interactions with efficient Hartree-Fock and    
              density functional methods                      
              M. K. Armbruster, F. Weigend, C. van Wüllen and 
              W. Klopper                                      
              Phys. Chem. Chem. Phys. 10: 1748 (2008)         
          Relativistic all-electron 2c calculations           
              An efficient implementation of two-component    
              relativistic exact-decoupling methods for large 
              molecules                                       
              D. Peng, N. Middendorf, F. Weigend, M. Reiher   
              J. Chem. Phys. 138, 184105 (2013)               
                                         




              +--------------------------------------------------+
              |      general information about current run       |
              +--------------------------------------------------+

 
 PBE0 hybrid functional
 exchange:    3/4 (LDA+PBE) + 1/4 HF
 correlation: LDA (PW) + PBE
 A Hybrid-DFT calculation using the RI-J approximation will be carried out.
 Allocatable memory for RI due to $ricore (MB):                  5000


              +--------------------------------------------------+
              | Atomic coordinate, charge and isotop information |
              +--------------------------------------------------+

                    atomic coordinates            atom    charge  isotop
        -12.81113226    6.80720380    0.00926576    o      8.000     0
        -10.86973913    5.50450451   -0.00107295    c      6.000     0
         -8.33505724    6.66177874    0.00643848    c      6.000     0
         -6.09338323    5.19239171    0.00698523    c      6.000     0
         -6.19266757    2.52842041   -0.00586979    c      6.000     0
         -8.60030935    1.36573875   -0.01114611    c      6.000     0
        -10.80366095    2.77427006   -0.00441730    c      6.000     0
         -3.01351872    6.22262996    0.00785381    s     16.000     0
         -2.04200491    3.02986925   -0.00445701    c      6.000     0
         -3.85732533    1.35728824   -0.00450197    n      7.000     0
          0.63118869    2.55303362    0.00152846    c      6.000     0
          1.61933238   -0.65501664   -0.01513351    s     16.000     0
          2.36761120    4.31018450    0.00555832    n      7.000     0
          4.78196312    3.37746895    0.00522944    c      6.000     0
          4.85384853    0.44060058   -0.00849367    c      6.000     0
          5.87865593   -0.23763762    1.67780504    h      1.000     0
          5.88660834   -0.22127908   -1.69175034    h      1.000     0
          6.72683852    4.59264372    0.00624237    o      8.000     0
         -8.16952109   10.16793700    0.02111620    br    35.000     0
         -8.66520506   -0.69540720   -0.01770776    h      1.000     0
        -12.64561475    1.83497169   -0.01422097    h      1.000     0
 
       center of nuclear mass  :   -4.07647164    5.04276683    0.00453137
       center of nuclear charge:   -3.93109973    4.82658264    0.00382935

              +--------------------------------------------------+
              |               basis set information              |
              +--------------------------------------------------+

              we will work with the 1s 3p 5d 7f 9g ... basis set
              ...i.e. with spherical basis functions...

   type   atoms  prim   cont   basis
   ---------------------------------------------------------------------------
    o        2     24     14   def2-SV(P)   [3s2p1d|7s4p1d]
    c       10     24     14   def2-SV(P)   [3s2p1d|7s4p1d]
    s        2     36     18   def2-SV(P)   [4s3p1d|10s7p1d]
    n        2     24     14   def2-SV(P)   [3s2p1d|7s4p1d]
    h        4      4      2   def2-SV(P)   [2s|4s]
    br       1     74     32   def2-SV(P)   [5s4p3d|14s10p6d]
   ---------------------------------------------------------------------------
   total:   21    498    272
   ---------------------------------------------------------------------------

   total number of primitive shells          :   88
   total number of contracted shells         :  120
   total number of cartesian basis functions :  291
   total number of SCF-basis functions       :  272


 integral neglect threshold       :  0.11E-10
 integral storage threshold THIZE :  0.10E-04
 integral storage threshold THIME :         5

 RI-J AUXILIARY BASIS SET information:

              we will work with the 1s 3p 5d 7f 9g ... basis set
              ...i.e. with spherical basis functions...

   type   atoms  prim   cont   basis
   ---------------------------------------------------------------------------
    o        2     70     49   def2-SV(P)   [6s4p3d1f1g|12s5p4d2f1g]
    c       10     70     49   def2-SV(P)   [6s4p3d1f1g|12s5p4d2f1g]
    s        2     77     51   def2-SV(P)   [8s4p3d1f1g|14s5p5d2f1g]
    n        2     70     49   def2-SV(P)   [6s4p3d1f1g|12s5p4d2f1g]
    h        4     16     11   def2-SV(P)   [3s1p1d|5s2p1d]
    br       1     89     58   def2-SV(P)   [8s4p3d2f1g|19s5p5d3f1g]
   ---------------------------------------------------------------------------
   total:   21   1287    890
   ---------------------------------------------------------------------------

   total number of primitive shells          :  140
   total number of contracted shells         :  282
   total number of cartesian basis functions : 1101
   total number of SCF-basis functions       :  890


 symmetry group of the molecule :   c1 

 the group has the following generators :
   c1(z)

    1 symmetry operations found

 there are 1 real representations :   a   

 maximum number of shells which are related by symmetry :  1


    mo occupation :
   irrep   mo's   occupied
    a      272       81
 
 number of basis functions   :                    272
 number of occupied orbitals :                     81
 
  
           ------------------
           density functional
           ------------------
 PBE0 hybrid functional
 exchange:    3/4 (LDA+PBE) + 1/4 HF
 correlation: LDA (PW) + PBE

 iterations will be done with small grid
  
 spherical integration : Lebedev's spherical grid
 spherical gridsize    :                     5
    i.e. gridpoints    :                   590
 value for diffuse not defined
 radial integration    : Chebyshev 2nd kind (scaling 3)
 radial gridsize       :                     8
 integration cells     :                    21
 partition function    : becke
 partition sharpness   :                     3
  

 biggest AO integral is expected to be    21.668154127
  
           ------------------------
               RI-J - INFORMATION
           ------------------------
 Contributions to RI integral batches: 
  neglected integral batches:                  2258
  direct contribution:                            0
  memory contribution:                  5002
 Memory core needed for (P|Q) and Cholesky      7 MByte
 Memory core minimum needed except of (P|Q)     1 MByte
 Total minimum memory core needed (sum)         7 MByte
  
 ****************************************
 Memory allocated for RI-J   249 MByte
 ****************************************
                                            

          ------------------------
          nuclear repulsion energy  :   1710.50616091    
          ------------------------


         -----------------
         -S,T+V- integrals
         -----------------

 1e-integrals will be neglected if expon. factor < 0.114844E-11
 
   Difference densities algorithm switched on.
   The maximal number of linear combinations of
   difference densities is                    20 .

 DIIS switched on: error vector is FDS-SDF
 Max. Iterations for DIIS is     :   4
 DIIS matrix (see manual) 
    Scaling factor of diagonals  :  1.200
    threshold for scaling factor :  0.000

 scf convergence criterion : increment of total energy < .1000000D-06
                  and increment of one-electron energy < .1000000D-03

  MOs are in ASCII format !


 automatic virtual orbital shift switched on 
      shift if e(lumo)-e(homo) < 0.10000000    


 reading orbital data $scfmo  from file mos
 orbital characterization : scfconv=7

 dump of DSCF restart information has been disabled !


 Starting SCF iterations

          Overall gridpoints after grid construction =        122132

 ITERATION  ENERGY          1e-ENERGY        2e-ENERGY     NORM[dD(SAO)]  TOL
   1  -4011.7255217292    -8981.8672750     3259.6355924    0.000D+00 0.115D-10
                            Exc = -172.723950530     Coul =  3488.01794765    
                            exK = -55.6584047471    
                              N = 162.00000423    
                            current damping = 0.700
 
          max. resid. norm for Fia-block=  3.696D-03 for orbital      1a         
          max. resid. fock norm         =  6.871D-03 for orbital      1a         

 ITERATION  ENERGY          1e-ENERGY        2e-ENERGY     NORM[dD(SAO)]  TOL
   2  -4011.7255901056    -8981.8729800     3259.6412290    0.235D-01 0.726D-11
                            Exc = -172.725600966      Eck =  3432.36682994    
                              N = 162.00000423    
                            current damping = 0.650
 
          Norm of current diis error: 0.86089E-02
          max. resid. norm for Fia-block=  1.522D-03 for orbital      1a         
          max. resid. fock norm         =  2.833D-03 for orbital    269a         

 ITERATION  ENERGY          1e-ENERGY        2e-ENERGY     NORM[dD(SAO)]  TOL
   3  -4011.7256021821    -8981.8897838     3259.6580207    0.705D-02 0.567D-11
                            Exc = -172.724618306      Eck =  3432.38263902    
                              N = 162.00000424    
                            current damping = 0.500
 
          Norm of current diis error: 0.59760E-02
          max. resid. norm for Fia-block=  5.996D-04 for orbital      1a         
          max. resid. fock norm         =  1.115D-03 for orbital      1a         

 ITERATION  ENERGY          1e-ENERGY        2e-ENERGY     NORM[dD(SAO)]  TOL
   4  -4011.7256077091    -8981.8778871     3259.6461185    0.241D-02 0.520D-11
                            Exc = -172.725366746      Eck =  3432.37148523    
                              N = 162.00000423    
                            current damping = 0.550
 
          Norm of current diis error: 0.19404E-02
          max. resid. norm for Fia-block=  1.999D-04 for orbital      1a         
          max. resid. fock norm         =  3.895D-04 for orbital    269a         

 ITERATION  ENERGY          1e-ENERGY        2e-ENERGY     NORM[dD(SAO)]  TOL
   5  -4011.7256082324    -8981.8828249     3259.6510557    0.168D-02 0.499D-11
                            Exc = -172.725213485      Eck =  3432.37626923    
                              N = 162.00000425    
                            current damping = 0.600
 
          Norm of current diis error: 0.12383E-02
          max. resid. norm for Fia-block=  7.601D-05 for orbital     81a         
          max. resid. fock norm         =  1.518D-04 for orbital    223a         
          mo-orthogonalization: Cholesky decomposition

 ITERATION  ENERGY          1e-ENERGY        2e-ENERGY     NORM[dD(SAO)]  TOL
   6  -4011.7256087618    -8981.8825053     3259.6507356    0.452D-03 0.486D-11
                            Exc = -172.725255249      Eck =  3432.37599085    
                              N = 162.00000425    
                            current damping = 0.650
 
          Norm of current diis error: 0.30985E-03
          max. resid. norm for Fia-block=  2.966D-05 for orbital     59a         
          max. resid. fock norm         =  5.675D-05 for orbital    248a         

 ENERGY CONVERGED !

          Overall gridpoints after grid construction =        372372

 ITERATION  ENERGY          1e-ENERGY        2e-ENERGY     NORM[dD(SAO)]  TOL
   7  -4011.7256055396    -8981.8822535     3259.6504870    0.192D-03 0.477D-11
                            Exc = -172.725263822      Eck =  3432.37575082    
                              N = 161.99999764    
                            current damping = 0.500
 
          Norm of current diis error: 0.18641E-03
          max. resid. norm for Fia-block=  1.118D-05 for orbital     59a         
          max. resid. fock norm         =  1.977D-05 for orbital     53a         

 End of SCF iterations

   convergence criteria satisfied after     7 iterations


                  ------------------------------------------ 
                 |  total energy      =  -4011.72560553956  |
                  ------------------------------------------ 
                 :  kinetic energy    =   4002.29437009813  :
                 :  potential energy  =  -8014.01997563769  :
                 :  virial theorem    =      1.99764908262  :
                 :  wavefunction norm =      1.00000000000  :
                  .......................................... 


 <geterg> : there is no data group $energy 


 orbitals $scfmo  will be written to file mos

    irrep                 77a         78a         79a         80a         81a   
 eigenvalues H         -0.16846    -0.16329    -0.12833    -0.11937    -0.07353
            eV          -4.5840     -4.4434     -3.4921     -3.2483     -2.0008
 occupation              2.0000      2.0000      2.0000      2.0000      2.0000 

    irrep                 82a         83a         84a         85a         86a   
 eigenvalues H          0.01771     0.10850     0.11888     0.12768     0.13600
            eV           0.4819      2.9526      3.2350      3.4744      3.7009
 
 
 
 
 ==============================================================================
                           electrostatic moments
 ==============================================================================

 reference point for electrostatic moments:    0.00000   0.00000   0.00000

 
              nuc           elec       ->  total
 ------------------------------------------------------------------------------
                          charge      
 ------------------------------------------------------------------------------
         161.000000    -162.000000      -1.000000
 
 ------------------------------------------------------------------------------
                       dipole moment  
 ------------------------------------------------------------------------------
   x    -632.907056     637.992201       5.085145
   y     777.079805    -783.229668      -6.149864
   z       0.616526      -0.625775      -0.009249
 
   | dipole moment | =     7.9800 a.u. =    20.2830 debye 
 
 ------------------------------------------------------------------------------
                     quadrupole moment
 ------------------------------------------------------------------------------
  xx    7674.492581   -7849.075092    -174.582511
  yy    5800.648750   -5937.287089    -136.638339
  zz       5.701527     -98.525266     -92.823740
  xy   -4803.918031    4838.926350      35.008319
  xz      -6.435516       6.502577       0.067061
  yz       9.487591      -9.559073      -0.071482
 
     1/3  trace=    -134.681530
     anisotropy=      93.267165
 
 ==============================================================================
 


    ------------------------------------------------------------------------
         total  cpu-time :  1 minutes and  4 seconds
         total wall-time :  1 minutes and  4 seconds
    ------------------------------------------------------------------------

   ****  ridft : all done  ****


    2018-02-09 12:59:52.075 


 egrad (missouri) : TURBOMOLE V7.2 ( 21454 ) 4 Oct 2017 at 12:24:43
 Copyright (C) 2017 TURBOMOLE GmbH, Karlsruhe


    2018-02-09 12:59:52.095 




                               e g r a d

                             TURBOMOLE GmbH


             integral direct evaluation of excited state
                     and polarizability gradients
                 and first-order nonadiabatic couplings



          references (see also programs escf, dscf and ridft) 

          review 
          F. Furche and D. Rappoport,  
          "Density functional methods for excited states: 
          equilibrium structure and electronic spectra",
          ch. III of "Computational Photochemistry", ed. by 
          M. Olivucci, vol. 16 of "Theoretical and Computational 
          Chemistry", Elsevier, Amsterdam, 2005.

          nonorthonormal Krylov space methods 
          F. Furche, B. T. Krull, B. D. Nguyen, J. Kwon, 
          J. Chem. Phys. 144 (2016), 174105.

          RI-J method 
          D. Rappoport and F. Furche, 
          J. Chem. Phys. 122 (2005), 064105.

          Lagrangian method, implementation, benchmarks 
          F. Furche and R. Ahlrichs,
          J. Chem. Phys. 117 (2002), 7433;
          J. Chem. Phys. 121 (2004), 12772 (E).

          Polarizability derivatives, Raman intensities 
          D. Rappoport and F. Furche, 
          J. Chem. Phys. 126 (2007), 201104.

          First-order nonadiabatic couplings 
          R. Send and F. Furche, 
          J. Chem. Phys. 132 (2010), 044107.
                                     




              +--------------------------------------------------+
              | Atomic coordinate, charge and isotop information |
              +--------------------------------------------------+

                    atomic coordinates            atom    charge  isotop
        -12.81113226    6.80720380    0.00926576    o      8.000     0
        -10.86973913    5.50450451   -0.00107295    c      6.000     0
         -8.33505724    6.66177874    0.00643848    c      6.000     0
         -6.09338323    5.19239171    0.00698523    c      6.000     0
         -6.19266757    2.52842041   -0.00586979    c      6.000     0
         -8.60030935    1.36573875   -0.01114611    c      6.000     0
        -10.80366095    2.77427006   -0.00441730    c      6.000     0
         -3.01351872    6.22262996    0.00785381    s     16.000     0
         -2.04200491    3.02986925   -0.00445701    c      6.000     0
         -3.85732533    1.35728824   -0.00450197    n      7.000     0
          0.63118869    2.55303362    0.00152846    c      6.000     0
          1.61933238   -0.65501664   -0.01513351    s     16.000     0
          2.36761120    4.31018450    0.00555832    n      7.000     0
          4.78196312    3.37746895    0.00522944    c      6.000     0
          4.85384853    0.44060058   -0.00849367    c      6.000     0
          5.87865593   -0.23763762    1.67780504    h      1.000     0
          5.88660834   -0.22127908   -1.69175034    h      1.000     0
          6.72683852    4.59264372    0.00624237    o      8.000     0
         -8.16952109   10.16793700    0.02111620    br    35.000     0
         -8.66520506   -0.69540720   -0.01770776    h      1.000     0
        -12.64561475    1.83497169   -0.01422097    h      1.000     0
 
       center of nuclear mass  :   -4.07647164    5.04276683    0.00453137
       center of nuclear charge:   -3.93109973    4.82658264    0.00382935

              +--------------------------------------------------+
              |               basis set information              |
              +--------------------------------------------------+

              we will work with the 1s 3p 5d 7f 9g ... basis set
              ...i.e. with spherical basis functions...

   type   atoms  prim   cont   basis
   ---------------------------------------------------------------------------
    o        2     24     14   def2-SV(P)   [3s2p1d|7s4p1d]
    c       10     24     14   def2-SV(P)   [3s2p1d|7s4p1d]
    s        2     36     18   def2-SV(P)   [4s3p1d|10s7p1d]
    n        2     24     14   def2-SV(P)   [3s2p1d|7s4p1d]
    h        4      4      2   def2-SV(P)   [2s|4s]
    br       1     74     32   def2-SV(P)   [5s4p3d|14s10p6d]
   ---------------------------------------------------------------------------
   total:   21    498    272
   ---------------------------------------------------------------------------

   total number of primitive shells          :   88
   total number of contracted shells         :  120
   total number of cartesian basis functions :  291
   total number of SCF-basis functions       :  272


 residuum convergence criterium   :  0.10E-04


 integral neglect threshold       :  0.11E-10
 integral storage threshold THIZE :  0.10E-04
 integral storage threshold THIME :         5

 
             FOUND RI-J FLAG !
 
  
 AUXILIARY BASIS SET information:

              we will work with the 1s 3p 5d 7f 9g ... basis set
              ...i.e. with spherical basis functions...

   type   atoms  prim   cont   basis
   ---------------------------------------------------------------------------
    o        2     70     49   def2-SV(P)   [6s4p3d1f1g|12s5p4d2f1g]
    c       10     70     49   def2-SV(P)   [6s4p3d1f1g|12s5p4d2f1g]
    s        2     77     51   def2-SV(P)   [8s4p3d1f1g|14s5p5d2f1g]
    n        2     70     49   def2-SV(P)   [6s4p3d1f1g|12s5p4d2f1g]
    h        4     16     11   def2-SV(P)   [3s1p1d|5s2p1d]
    br       1     89     58   def2-SV(P)   [8s4p3d2f1g|19s5p5d3f1g]
   ---------------------------------------------------------------------------
   total:   21   1287    890
   ---------------------------------------------------------------------------

   total number of primitive shells          :  140
   total number of contracted shells         :  282
   total number of cartesian basis functions : 1101
   total number of SCF-basis functions       :  890

 RPA SINGLET-EXCITATION-CALCULATION 
 
             FOUND DFT-FLAG !
 

 symmetry group of the molecule :   c1 

 the group has the following generators :
   c1(z)

    1 symmetry operations found

 there are 1 real representations :   a   

 maximum number of shells which are related by symmetry :  1

 IRREP of excited state :   a   
 

 determining totally symmetric integral contributions 
    - equivalent to irreducible tensor elements - 
 which can be formed within each triple of representations :

             representation triple      contributions

              a     a     a               1

    mo occupation :
   irrep   mo's   occupied
    a      272       81
 
 number of basis functions   :                    272
 number of occupied orbitals :                     81
 
  
           ------------------
           density functional
           ------------------
 PBE0 hybrid functional
 exchange:    3/4 (LDA+PBE) + 1/4 HF
 correlation: LDA (PW) + PBE

 iterations will be done with small grid
  
 spherical integration : Lebedev's spherical grid
 spherical gridsize    :                     5
    i.e. gridpoints    :                   590
 value for diffuse not defined
 radial integration    : Chebyshev 2nd kind (scaling 3)
 radial gridsize       :                     8
 integration cells     :                    21
 partition function    : becke
 partition sharpness   :                     3
  
  
           ----------------------
               RI - INFORMATION
           ----------------------

 biggest AO integral is expected to be    21.668154127

 Threshold for integral neglect (rithr2):   0.11E-10
 Threshold for integral neglect (rithr1):   0.11E-10

 Contributions to RI integral batches: 
  neglected integral batches:                  2114
  direct contribution:                            0
  memory contribution:                  5146
 Core memory available (ricore)            5000 MiB
 Core memory needed for (P|Q) and Cholesky 7 MiB
 Core memory used for integrals            250 MiB
  
 ****************************************
 Memory allocated for RIDFT 257 MiB
 ****************************************
                                            
  MOs are in ASCII format !


 reading orbital data $scfmo  from file mos
 orbital characterization : scfconv=7
 preparing numerical integration ....
          Overall gridpoints after grid construction =        122132

 Calculating ground state density on molecular grid

 Integral of ground state density: N =   162.0000042534516    



 number of non-frozen orbitals          :   272
 number of non-frozen occupied orbitals :    81



                        -------------------
                         excitation vector 
                        -------------------


 dimension of super-tensorspace: 2

          IRREP   tensor space dimension   number of roots

           a             15471                   1

 maximum number of Davidson iterations set to   25


 machine precision: 2.22D-16


 logfile sing_a    will be constructed


                       Nonorthonormal Krylov Space Iteration


 total number of roots to be determined:   1


 maximum core memory set to  5000 MB,
 corresponding to     3796 vectors in CAO basis


 maximum number of simultaneously treated vectors (including degeneracy):        2


 Iteration IRREP Converged      Max. Euclidean
                 roots          residual norm

    1       a        0        3.260537546937384D-02
 
    2       a        0        9.424261963459057D-02
 
    3       a        0        3.399573969103952D-02
 
    4       a        0        1.345157168818712D-02
 
    5       a        0        4.894472129717045D-03
 
    6       a        0        2.503358114890317D-03
 
    7       a        0        1.180083332064177D-03
 
    8       a        0        4.781080546956031D-04
 
    9       a        0        2.080303248197425D-04
 
   10       a        0        9.705836899293520D-05
 
   11       a        0        4.757593540764828D-05
 
   12       a        0        1.385377428749233D-05
 
   13       a        1        5.301544371467693D-06
 

 converged!


 Switching to fine grid

 preparing numerical integration ....
          Overall gridpoints after grid construction =        372372

 Calculating ground state density on molecular grid

 Integral of ground state density: N =   161.9999976426101    



 Iteration IRREP Converged      Max. Euclidean
                 roots          residual norm

   14       a        1        8.549587834975613D-06
 

 converged!

 Eigenpairs written on logfile sing_a   



 IRREP   Vector     Eigenvalue           Euclidean residual norm

  a         1    8.347891220996179D-02    8.549587834975613D-06
 




                    Selection rules for point group c1  


 Subduction with respect to c1  :

    Polar vector representation: a                           

    Axial vector representation: a                           

    Symmetric second rank tensor representation: a                           




                            Ground state


 Total energy:                           -4011.725605540000    

 Charge:

               elec          nuc         total

          -162.000000   161.000000    -1.000000


 Electric dipole moment:

               elec          nuc         total   

    x      637.992201  -632.907056     5.085145    Norm:              7.979950
    y     -783.229668   777.079805    -6.149864
    z       -0.625775     0.616526    -0.009249    Norm / debye:     20.283164


 Electric quadrupole moment:

               elec          nuc         total   

   xx    -7849.075092  7674.492581  -174.582511
   yy    -5937.287089  5800.648750  -136.638339    1/3*trace:      -134.681530
   zz      -98.525266     5.701527   -92.823740
   xy     4838.926350 -4803.918031    35.008319
   xz        6.502577    -6.435516     0.067061    Anisotropy:       93.267165
   yz       -9.559073     9.487591    -0.071482



 ==============================================================================

                              I R R E P   a   

 ==============================================================================


 Excitation is electric dipole allowed

 Excitation is magnetic dipole allowed

 Excitation is electric quadrupole allowed




                         1 singlet a excitation


 Total energy:                           -4011.642126627790    

 Excitation energy:                      0.8347891220996179E-01

 Excitation energy / eV:                  2.271577751985920    

 Excitation energy / nm:                  545.8067367409081    

 Excitation energy / cm^(-1):             18321.50342851908    


 Oscillator strength:

    velocity representation:             0.3084152468576604    

    length representation:               0.3598055520209063    

    mixed representation:                0.3331150527300243    


 Rotatory strength:

    velocity representation:            -0.8320439536429942E-05

    velocity rep. / 10^(-40)erg*cm^3:   -0.5375404686703603    

    length representation:              -0.9072971849563551E-05

    length rep. / 10^(-40)erg*cm^3:     -0.5861576806001277    


 Dominant contributions:

      occ. orbital   energy / eV   virt. orbital     energy / eV   |coeff.|^2*100
       81 a              -2.00          82 a               0.48       91.8
 

 Change of electron number:

             0.000000


 Electric transition dipole moment (velocity rep.):

    x       -2.313747        Norm:                  2.354101
    y        0.434014
    z        0.000376        Norm / debye:          5.983574


 Electric transition dipole moment (length rep.):

    x       -2.496274        Norm:                  2.542677
    y        0.483549
    z        0.000312        Norm / debye:          6.462889


 Magnetic transition dipole moment / i:

    x        0.000004        Norm:                  0.001083
    y        0.000000
    z        0.001083        Norm / Bohr mag.:      0.296702


 Electric quadrupole transition moment:

   xx       18.757925
   yy        4.450816        1/3*trace:             7.699590
   zz       -0.109970
   xy      -11.268383
   xz       -0.002028        Anisotropy:           25.916698
   yz        0.004633
 

 Excited state no.    1 chosen for optimization


                       ----------------------
                        CPKS right-hand side 
                       ----------------------


          IRREP   tensor space dimension   number of roots

           a             15471                   1

                          ----------------
                           CPKS equations 
                          ----------------


 logfile dipl_a    will be constructed

 Switching to coarse grid

 preparing numerical integration ....
          Overall gridpoints after grid construction =        122132


                       Nonorthonormal Krylov Space Iteration


 total number of roots to be determined:   1


 maximum core memory set to  5000 MB,
 corresponding to     7544 vectors in CAO basis


 maximum number of simultaneously treated vectors (including degeneracy):        1


 Iteration IRREP Converged      Max. Euclidean
                 roots          residual norm

    1       a        0        1.088572545417991D-01
 
    2       a        0        4.873551438756793D-02
 
    3       a        0        2.232212596906583D-02
 
    4       a        0        9.434666064513904D-03
 
    5       a        0        3.543248013813045D-03
 
    6       a        0        1.239150729291594D-03
 
    7       a        0        4.750736292785880D-04
 
    8       a        0        1.636532931112013D-04
 
    9       a        0        8.205586773644948D-05
 
   10       a        0        1.916326457159555D-05
 
   11       a        1        8.114745207657947D-06
 

 converged!


 Switching to fine grid

 preparing numerical integration ....
          Overall gridpoints after grid construction =        372372

 Iteration IRREP Converged      Max. Euclidean
                 roots          residual norm

   12       a        0        1.628394768650636D-05
 

 NOTE: Residual norms are larger than 1.00D-05 due to mgrid option!

 Eigenpairs written on logfile dipl_a   



 IRREP   Vector     Frequency            Euclidean residual norm

  a         1    0.000000000000000D+00    1.628394768650636D-05
 

                          -------------------
                           relaxed densities 
                          -------------------


    ----------------------------------------
     S+T+V CONTRIBUTIONS TO ENERGY GRADIENT 
    ----------------------------------------

 1e-integral 1st. derivatives will be neglected if expon. factor < 0.100000E-10


    -----------------------------------------------
     TWO ELECTRON CONTRIBUTIONS TO ENERGY GRADIENT 
    -----------------------------------------------

 setting up bound for integral derivative estimation

 increment for numerical differentiation : 0.00050000

 biggest AO integral is expected to be    21.668154127
 biggest cartesian 1st derivative AO integral is expected to be    83.347447328

 biggest 1-particle AO density matrix element is expected to be    3.2069810800

 core memory to be involved in 2e-gradient :
   symmetry shell pair data              :         1
   two particle density+dens. estimates  :      8556
   derivative integrals                  :      8498
   derivative integral bound             :     21780
   totally                               :     30276


 setting up bound for integral derivative estimation

 increment for numerical differentiation : 0.00050000

 biggest AO integral is expected to be    21.668154127
 biggest cartesian 1st derivative AO integral is expected to be    83.347447328

 2e-integral 1st. derivatives will be neglected if expon. factor < 0.100000E-06
 outer boundary for 2e-integral derivative neglection is 0.162053E-08

 Integrated ground state density     :   161.9999976426089    


          ------------------------------------------------
           cartesian gradient of the energy (hartree/bohr)
          ------------------------------------------------

  ATOM      1 o           2 c           3 c           4 c           5 c 
dE/dx  0.1213349D-02 -0.6141433D-03 -0.2289754D-02  0.1730174D-02  0.3529498D-02
dE/dy -0.3029662D-03 -0.6232135D-03 -0.1020626D-03  0.1297188D-02 -0.1111608D-02
dE/dz  0.3898476D-03 -0.9772345D-03  0.6771893D-04  0.4784820D-03 -0.4564719D-03

  ATOM      6 c           7 c           8 s           9 c          10 n 
dE/dx -0.2753166D-02 -0.3821371D-03  0.1025127D-03 -0.2024613D-02 -0.1994301D-03
dE/dy -0.4993736D-02  0.2811012D-02  0.1147674D-02 -0.1782950D-02  0.7735095D-03
dE/dz -0.1703211D-03  0.7202124D-03 -0.3771510D-05 -0.6425722D-03  0.4710849D-03

  ATOM     11 c          12 s          13 n          14 c          15 c 
dE/dx  0.3203727D-02 -0.1207381D-02 -0.3585439D-02  0.6700753D-02  0.1512709D-02
dE/dy  0.2069657D-02 -0.5328407D-03 -0.1196868D-02  0.4224477D-02 -0.1059262D-02
dE/dz  0.5811667D-03 -0.1179324D-04 -0.3626330D-03  0.5837682D-03 -0.1412928D-02

  ATOM     16 h          17 h          18 o          19 br         20 h 
dE/dx -0.1138993D-03 -0.5143946D-03 -0.5147796D-02  0.6720466D-04  0.6140264D-03
dE/dy  0.7790066D-05  0.4498150D-03 -0.3647710D-02  0.4379153D-03  0.2554808D-02
dE/dz  0.7922937D-04  0.1013130D-02 -0.2011679D-03  0.4661542D-05  0.3335777D-04

  ATOM     21 h 
dE/dx  0.1449972D-03
dE/dy -0.4341712D-03
dE/dz -0.1839155D-03
 
 resulting FORCE  (fx,fy,fz) = (-.132D-04,-.135D-04,-.150D-06)
 resulting MOMENT (mx,my,mz) = (-.168D-04,0.300D-04,0.822D-04)


 **********************************************************************
  |maximum component of gradient| : 0.67007525E-02  (atom 14 c )       
   gradient norm                  : 0.15057759E-01
 **********************************************************************

 exx =      -0.004848 eyy =       0.000821 ezz =      -0.001556
 eyz =      -0.000704 exz =       0.000678 exy =      -0.009178


 <getgrd> : data group $grad  is missing 

   ***  cartesian gradients written onto <gradient>  ***
 
 
 
 ==============================================================================
                           electrostatic moments
 ==============================================================================

 reference point for electrostatic moments:    0.00000   0.00000   0.00000

 
              nuc           gs,e       ->  gs,tot          excit     ->  total
 ------------------------------------------------------------------------------
                          charge      
 ------------------------------------------------------------------------------
         161.000000    -162.000000      -1.000000       0.000000      -1.000000
 
 ------------------------------------------------------------------------------
                       dipole moment  
 ------------------------------------------------------------------------------
   x    -632.907056     637.992201       5.085145      -1.265452       3.819693
   y     777.079805    -783.229668      -6.149864       1.271497      -4.878367
   z       0.616526      -0.625775      -0.009249       0.002814      -0.006435
 
   | dipole moment | =     6.1959 a.u. =    15.7483 debye 
 
 ------------------------------------------------------------------------------
                     quadrupole moment
 ------------------------------------------------------------------------------
  xx    7674.492581   -7849.075092    -174.582511       2.219261    -172.363250
  yy    5800.648750   -5937.287089    -136.638339      13.588968    -123.049371
  zz       5.701527     -98.525266     -92.823740       0.198069     -92.625671
  xy   -4803.918031    4838.926350      35.008319     -12.228065      22.780254
  xz      -6.435516       6.502577       0.067061      -0.026070       0.040991
  yz       9.487591      -9.559073      -0.071482       0.024461      -0.047021
 
     1/3  trace=    -129.346097
     anisotropy=      80.091213
 
 ==============================================================================
 


    ------------------------------------------------------------------------
         total  cpu-time :  5 minutes and 44 seconds
         total wall-time :  5 minutes and 44 seconds
    ------------------------------------------------------------------------

   ****  egrad : all done  ****


    2018-02-09 13:05:35.943 

$dipole from egrad
  x     3.81969272205549    y    -4.87836701571166    z    -0.00643508015246    a.u.
   | dipole | =   15.7483991794  debye
/work/bdnguye2/luc_project/7_brluc/ex_geo_opt/save/numforce/KraftWerk/p010
