 operating system is UNIX !

 ridft (missouri) : TURBOMOLE V7.2 ( 21454 ) 4 Oct 2017 at 12:48:15
 Copyright (C) 2017 TURBOMOLE GmbH, Karlsruhe


    2018-02-09 13:05:35.987 



                                  r i d f t

                        DFT program with RI approximation 
                                for coulomb part 




                                                 
                                 References:     
                                                 
          TURBOMOLE:                             
              R. Ahlrichs, M. Baer, M. Haeser, H. Horn, and
              C. Koelmel
              Electronic structure calculations on workstation
              computers: the program system TURBOMOLE
              Chem. Phys. Lett. 162: 165 (1989)
          Density Functional:                              
              O. Treutler and R. Ahlrichs                      
              Efficient Molecular Numerical Integration Schemes
              J. Chem. Phys. 102: 346 (1995)                   
          Parallel Version:                                
              Performance of parallel TURBOMOLE for Density    
              Functional Calculations                          
              M. v. Arnim and R. Ahlrichs                      
              J. Comp. Chem. 19: 1746 (1998)                   
          RI-J Method:                                     
              Auxiliary Basis Sets to approximate Coulomb      
              Potentials                                       
              Chem. Phys. Lett. 240: 283 (1995)                
              K. Eichkorn, O. Treutler, H. Oehm, M. Haeser     
              and R. Ahlrichs                                  
              Chem. Phys. Lett. 242: 652 (1995)                
                                                           
              Auxiliary Basis Sets for Main Row Atoms and their
              Use to approximate Coulomb Potentials            
              K. Eichkorn, F. Weigend, O. Treutler and         
              R. Ahlrichs                                      
              Theo. Chem. Acc. 97: 119 (1997)                   
                                                           
              Accurate Coulomb-fitting basis sets for H to Rn 
              F. Weigend                                        
              Phys. Chem. Chem. Phys. 8: 1057 (2006)            
                                                           
          Multipole accelerated RI-J (MARI-J):             
              Fast evaluation of the Coulomb potential for     
              electron densities using multipole accelerated   
              resolution of identity approximation             
              M. Sierka, A. Hogekamp and R. Ahlrichs           
              J. Chem. Phys. 118: 9136 (2003)                  
          RI-JK Method:                                     
              A fully direct RI-HF algorithm: Implementation,
              optimised auxiliary basis sets, demonstration of
              accuracy and efficiency                         
              F. Weigend                                      
              Phys. Chem. Chem. Phys. 4: 4285 (2002)           
          Two-component HF and DFT with spin-orbit coupling:  
              Self-consistent treatment of spin-orbit         
              interactions with efficient Hartree-Fock and    
              density functional methods                      
              M. K. Armbruster, F. Weigend, C. van Wüllen and 
              W. Klopper                                      
              Phys. Chem. Chem. Phys. 10: 1748 (2008)         
          Relativistic all-electron 2c calculations           
              An efficient implementation of two-component    
              relativistic exact-decoupling methods for large 
              molecules                                       
              D. Peng, N. Middendorf, F. Weigend, M. Reiher   
              J. Chem. Phys. 138, 184105 (2013)               
                                         




              +--------------------------------------------------+
              |      general information about current run       |
              +--------------------------------------------------+

 
 PBE0 hybrid functional
 exchange:    3/4 (LDA+PBE) + 1/4 HF
 correlation: LDA (PW) + PBE
 A Hybrid-DFT calculation using the RI-J approximation will be carried out.
 Allocatable memory for RI due to $ricore (MB):                  5000


              +--------------------------------------------------+
              | Atomic coordinate, charge and isotop information |
              +--------------------------------------------------+

                    atomic coordinates            atom    charge  isotop
        -12.81095367    6.80706137    0.00896883    o      8.000     0
        -10.87035571    5.50339556   -0.00081984    c      6.000     0
         -8.33505724    6.66336464    0.00841546    c      6.000     0
         -6.09293200    5.19345968    0.00476758    c      6.000     0
         -6.19492306    2.52662171   -0.00844709    c      6.000     0
         -8.59825402    1.36734177   -0.00781742    c      6.000     0
        -10.79968572    2.77336274   -0.00441730    c      6.000     0
         -3.01796232    6.21795862    0.00678761    s     16.000     0
         -2.04422625    3.03448190   -0.00021416    c      6.000     0
         -3.85394177    1.36175379   -0.00806312    n      7.000     0
          0.62859709    2.54765211   -0.00452571    c      6.000     0
          1.62071421   -0.65501664   -0.00871233    s     16.000     0
          2.37405167    4.31165449    0.00849306    n      7.000     0
          4.77586907    3.37207910    0.00093117    c      6.000     0
          4.84837920    0.44496223   -0.00542678    c      6.000     0
          5.88502439   -0.23070361    1.67622240    h      1.000     0
          5.88670995   -0.22172426   -1.69257146    h      1.000     0
          6.72644309    4.59179429    0.00730752    o      8.000     0
         -8.16839395   10.16935038    0.02313956    br    35.000     0
         -8.66617946   -0.69600234   -0.02031522    h      1.000     0
        -12.64870703    1.83497169   -0.00918144    h      1.000     0
 
       center of nuclear mass  :   -4.07654748    5.04282805    0.00547460
       center of nuclear charge:   -3.93120346    4.82662055    0.00472757

              +--------------------------------------------------+
              |               basis set information              |
              +--------------------------------------------------+

              we will work with the 1s 3p 5d 7f 9g ... basis set
              ...i.e. with spherical basis functions...

   type   atoms  prim   cont   basis
   ---------------------------------------------------------------------------
    o        2     24     14   def2-SV(P)   [3s2p1d|7s4p1d]
    c       10     24     14   def2-SV(P)   [3s2p1d|7s4p1d]
    s        2     36     18   def2-SV(P)   [4s3p1d|10s7p1d]
    n        2     24     14   def2-SV(P)   [3s2p1d|7s4p1d]
    h        4      4      2   def2-SV(P)   [2s|4s]
    br       1     74     32   def2-SV(P)   [5s4p3d|14s10p6d]
   ---------------------------------------------------------------------------
   total:   21    498    272
   ---------------------------------------------------------------------------

   total number of primitive shells          :   88
   total number of contracted shells         :  120
   total number of cartesian basis functions :  291
   total number of SCF-basis functions       :  272


 integral neglect threshold       :  0.11E-10
 integral storage threshold THIZE :  0.10E-04
 integral storage threshold THIME :         5

 RI-J AUXILIARY BASIS SET information:

              we will work with the 1s 3p 5d 7f 9g ... basis set
              ...i.e. with spherical basis functions...

   type   atoms  prim   cont   basis
   ---------------------------------------------------------------------------
    o        2     70     49   def2-SV(P)   [6s4p3d1f1g|12s5p4d2f1g]
    c       10     70     49   def2-SV(P)   [6s4p3d1f1g|12s5p4d2f1g]
    s        2     77     51   def2-SV(P)   [8s4p3d1f1g|14s5p5d2f1g]
    n        2     70     49   def2-SV(P)   [6s4p3d1f1g|12s5p4d2f1g]
    h        4     16     11   def2-SV(P)   [3s1p1d|5s2p1d]
    br       1     89     58   def2-SV(P)   [8s4p3d2f1g|19s5p5d3f1g]
   ---------------------------------------------------------------------------
   total:   21   1287    890
   ---------------------------------------------------------------------------

   total number of primitive shells          :  140
   total number of contracted shells         :  282
   total number of cartesian basis functions : 1101
   total number of SCF-basis functions       :  890


 symmetry group of the molecule :   c1 

 the group has the following generators :
   c1(z)

    1 symmetry operations found

 there are 1 real representations :   a   

 maximum number of shells which are related by symmetry :  1


    mo occupation :
   irrep   mo's   occupied
    a      272       81
 
 number of basis functions   :                    272
 number of occupied orbitals :                     81
 
  
           ------------------
           density functional
           ------------------
 PBE0 hybrid functional
 exchange:    3/4 (LDA+PBE) + 1/4 HF
 correlation: LDA (PW) + PBE

 iterations will be done with small grid
  
 spherical integration : Lebedev's spherical grid
 spherical gridsize    :                     5
    i.e. gridpoints    :                   590
 value for diffuse not defined
 radial integration    : Chebyshev 2nd kind (scaling 3)
 radial gridsize       :                     8
 integration cells     :                    21
 partition function    : becke
 partition sharpness   :                     3
  

 biggest AO integral is expected to be    21.668154127
  
           ------------------------
               RI-J - INFORMATION
           ------------------------
 Contributions to RI integral batches: 
  neglected integral batches:                  2259
  direct contribution:                            0
  memory contribution:                  5001
 Memory core needed for (P|Q) and Cholesky      7 MByte
 Memory core minimum needed except of (P|Q)     1 MByte
 Total minimum memory core needed (sum)         7 MByte
  
 ****************************************
 Memory allocated for RI-J   249 MByte
 ****************************************
                                            

          ------------------------
          nuclear repulsion energy  :   1710.84176822    
          ------------------------


         -----------------
         -S,T+V- integrals
         -----------------

 1e-integrals will be neglected if expon. factor < 0.114844E-11
 
   Difference densities algorithm switched on.
   The maximal number of linear combinations of
   difference densities is                    20 .

 DIIS switched on: error vector is FDS-SDF
 Max. Iterations for DIIS is     :   4
 DIIS matrix (see manual) 
    Scaling factor of diagonals  :  1.200
    threshold for scaling factor :  0.000

 scf convergence criterion : increment of total energy < .1000000D-06
                  and increment of one-electron energy < .1000000D-03

  MOs are in ASCII format !


 automatic virtual orbital shift switched on 
      shift if e(lumo)-e(homo) < 0.10000000    


 reading orbital data $scfmo  from file mos
 orbital characterization : scfconv=7

 dump of DSCF restart information has been disabled !


 Starting SCF iterations

          Overall gridpoints after grid construction =        122128

 ITERATION  ENERGY          1e-ENERGY        2e-ENERGY     NORM[dD(SAO)]  TOL
   1  -4011.7252428144    -8982.5347068     3259.9676958    0.000D+00 0.115D-10
                            Exc = -172.726409121     Coul =  3488.35326047    
                            exK = -55.6591555903    
                              N = 162.00000431    
                            current damping = 0.700
 
          max. resid. norm for Fia-block=  4.102D-03 for orbital      1a         
          max. resid. fock norm         =  7.639D-03 for orbital      1a         

 ITERATION  ENERGY          1e-ENERGY        2e-ENERGY     NORM[dD(SAO)]  TOL
   2  -4011.7252963725    -8982.5323796     3259.9653151    0.225D-01 0.726D-11
                            Exc = -172.726488742      Eck =  3432.69180380    
                              N = 162.00000431    
                            current damping = 0.650
 
          Norm of current diis error: 0.78604E-02
          max. resid. norm for Fia-block=  1.688D-03 for orbital      1a         
          max. resid. fock norm         =  3.145D-03 for orbital      1a         

 ITERATION  ENERGY          1e-ENERGY        2e-ENERGY     NORM[dD(SAO)]  TOL
   3  -4011.7253065951    -8982.5399708     3259.9728960    0.534D-02 0.561D-11
                            Exc = -172.726149626      Eck =  3432.69904561    
                              N = 162.00000434    
                            current damping = 0.600
 
          Norm of current diis error: 0.45959E-02
          max. resid. norm for Fia-block=  6.652D-04 for orbital      1a         
          max. resid. fock norm         =  1.239D-03 for orbital      1a         

 ITERATION  ENERGY          1e-ENERGY        2e-ENERGY     NORM[dD(SAO)]  TOL
   4  -4011.7253097930    -8982.5306590     3259.9635810    0.222D-02 0.517D-11
                            Exc = -172.726364917      Eck =  3432.68994594    
                              N = 162.00000433    
                            current damping = 0.650
 
          Norm of current diis error: 0.18581E-02
          max. resid. norm for Fia-block=  2.494D-04 for orbital      1a         
          max. resid. fock norm         =  4.647D-04 for orbital      1a         

 ITERATION  ENERGY          1e-ENERGY        2e-ENERGY     NORM[dD(SAO)]  TOL
   5  -4011.7253103839    -8982.5342337     3259.9671551    0.910D-03 0.495D-11
                            Exc = -172.726222495      Eck =  3432.69337761    
                              N = 162.00000433    
                            current damping = 0.700
 
          Norm of current diis error: 0.71286E-03
          max. resid. norm for Fia-block=  9.825D-05 for orbital      1a         
          max. resid. fock norm         =  1.831D-04 for orbital      1a         
          mo-orthogonalization: Cholesky decomposition

 ENERGY CONVERGED !

          Overall gridpoints after grid construction =        372360

 ITERATION  ENERGY          1e-ENERGY        2e-ENERGY     NORM[dD(SAO)]  TOL
   6  -4011.7253075949    -8982.5342575     3259.9671816    0.402D-03 0.480D-11
                            Exc = -172.726271555      Eck =  3432.69345320    
                              N = 161.99999776    
                            current damping = 0.550
 
          Norm of current diis error: 0.30047E-03
          max. resid. norm for Fia-block=  4.046D-05 for orbital      1a         
          max. resid. fock norm         =  7.538D-05 for orbital      1a         

 End of SCF iterations

   convergence criteria satisfied after     6 iterations


                  ------------------------------------------ 
                 |  total energy      =  -4011.72530759485  |
                  ------------------------------------------ 
                 :  kinetic energy    =   4002.29913415767  :
                 :  potential energy  =  -8014.02444175252  :
                 :  virial theorem    =      1.99765034425  :
                 :  wavefunction norm =      1.00000000000  :
                  .......................................... 


 <geterg> : there is no data group $energy 


 orbitals $scfmo  will be written to file mos

    irrep                 77a         78a         79a         80a         81a   
 eigenvalues H         -0.16861    -0.16327    -0.12848    -0.11958    -0.07377
            eV          -4.5882     -4.4429     -3.4962     -3.2540     -2.0073
 occupation              2.0000      2.0000      2.0000      2.0000      2.0000 

    irrep                 82a         83a         84a         85a         86a   
 eigenvalues H          0.01716     0.10841     0.11925     0.12765     0.13643
            eV           0.4670      2.9501      3.2448      3.4737      3.7125
 
 
 
 
 ==============================================================================
                           electrostatic moments
 ==============================================================================

 reference point for electrostatic moments:    0.00000   0.00000   0.00000

 
              nuc           elec       ->  total
 ------------------------------------------------------------------------------
                          charge      
 ------------------------------------------------------------------------------
         161.000000    -162.000000      -1.000000
 
 ------------------------------------------------------------------------------
                       dipole moment  
 ------------------------------------------------------------------------------
   x    -632.923757     637.975226       5.051469
   y     777.085908    -783.253972      -6.168064
   z       0.761139      -0.773549      -0.012410
 
   | dipole moment | =     7.9726 a.u. =    20.2644 debye 
 
 ------------------------------------------------------------------------------
                     quadrupole moment
 ------------------------------------------------------------------------------
  xx    7673.326413   -7848.031486    -174.705073
  yy    5800.688217   -5937.380536    -136.692319
  zz       5.699522     -98.514367     -92.814845
  xy   -4804.304053    4839.088626      34.784573
  xz      -6.827117       6.886509       0.059392
  yz      10.048297     -10.138819      -0.090521
 
     1/3  trace=    -134.737412
     anisotropy=      93.102312
 
 ==============================================================================
 


    ------------------------------------------------------------------------
         total  cpu-time :  54.04 seconds
         total wall-time :  54.05 seconds
    ------------------------------------------------------------------------

   ****  ridft : all done  ****


    2018-02-09 13:06:30.026 


 egrad (missouri) : TURBOMOLE V7.2 ( 21454 ) 4 Oct 2017 at 12:24:43
 Copyright (C) 2017 TURBOMOLE GmbH, Karlsruhe


    2018-02-09 13:06:30.037 




                               e g r a d

                             TURBOMOLE GmbH


             integral direct evaluation of excited state
                     and polarizability gradients
                 and first-order nonadiabatic couplings



          references (see also programs escf, dscf and ridft) 

          review 
          F. Furche and D. Rappoport,  
          "Density functional methods for excited states: 
          equilibrium structure and electronic spectra",
          ch. III of "Computational Photochemistry", ed. by 
          M. Olivucci, vol. 16 of "Theoretical and Computational 
          Chemistry", Elsevier, Amsterdam, 2005.

          nonorthonormal Krylov space methods 
          F. Furche, B. T. Krull, B. D. Nguyen, J. Kwon, 
          J. Chem. Phys. 144 (2016), 174105.

          RI-J method 
          D. Rappoport and F. Furche, 
          J. Chem. Phys. 122 (2005), 064105.

          Lagrangian method, implementation, benchmarks 
          F. Furche and R. Ahlrichs,
          J. Chem. Phys. 117 (2002), 7433;
          J. Chem. Phys. 121 (2004), 12772 (E).

          Polarizability derivatives, Raman intensities 
          D. Rappoport and F. Furche, 
          J. Chem. Phys. 126 (2007), 201104.

          First-order nonadiabatic couplings 
          R. Send and F. Furche, 
          J. Chem. Phys. 132 (2010), 044107.
                                     




              +--------------------------------------------------+
              | Atomic coordinate, charge and isotop information |
              +--------------------------------------------------+

                    atomic coordinates            atom    charge  isotop
        -12.81095367    6.80706137    0.00896883    o      8.000     0
        -10.87035571    5.50339556   -0.00081984    c      6.000     0
         -8.33505724    6.66336464    0.00841546    c      6.000     0
         -6.09293200    5.19345968    0.00476758    c      6.000     0
         -6.19492306    2.52662171   -0.00844709    c      6.000     0
         -8.59825402    1.36734177   -0.00781742    c      6.000     0
        -10.79968572    2.77336274   -0.00441730    c      6.000     0
         -3.01796232    6.21795862    0.00678761    s     16.000     0
         -2.04422625    3.03448190   -0.00021416    c      6.000     0
         -3.85394177    1.36175379   -0.00806312    n      7.000     0
          0.62859709    2.54765211   -0.00452571    c      6.000     0
          1.62071421   -0.65501664   -0.00871233    s     16.000     0
          2.37405167    4.31165449    0.00849306    n      7.000     0
          4.77586907    3.37207910    0.00093117    c      6.000     0
          4.84837920    0.44496223   -0.00542678    c      6.000     0
          5.88502439   -0.23070361    1.67622240    h      1.000     0
          5.88670995   -0.22172426   -1.69257146    h      1.000     0
          6.72644309    4.59179429    0.00730752    o      8.000     0
         -8.16839395   10.16935038    0.02313956    br    35.000     0
         -8.66617946   -0.69600234   -0.02031522    h      1.000     0
        -12.64870703    1.83497169   -0.00918144    h      1.000     0
 
       center of nuclear mass  :   -4.07654748    5.04282805    0.00547460
       center of nuclear charge:   -3.93120346    4.82662055    0.00472757

              +--------------------------------------------------+
              |               basis set information              |
              +--------------------------------------------------+

              we will work with the 1s 3p 5d 7f 9g ... basis set
              ...i.e. with spherical basis functions...

   type   atoms  prim   cont   basis
   ---------------------------------------------------------------------------
    o        2     24     14   def2-SV(P)   [3s2p1d|7s4p1d]
    c       10     24     14   def2-SV(P)   [3s2p1d|7s4p1d]
    s        2     36     18   def2-SV(P)   [4s3p1d|10s7p1d]
    n        2     24     14   def2-SV(P)   [3s2p1d|7s4p1d]
    h        4      4      2   def2-SV(P)   [2s|4s]
    br       1     74     32   def2-SV(P)   [5s4p3d|14s10p6d]
   ---------------------------------------------------------------------------
   total:   21    498    272
   ---------------------------------------------------------------------------

   total number of primitive shells          :   88
   total number of contracted shells         :  120
   total number of cartesian basis functions :  291
   total number of SCF-basis functions       :  272


 residuum convergence criterium   :  0.10E-04


 integral neglect threshold       :  0.11E-10
 integral storage threshold THIZE :  0.10E-04
 integral storage threshold THIME :         5

 
             FOUND RI-J FLAG !
 
  
 AUXILIARY BASIS SET information:

              we will work with the 1s 3p 5d 7f 9g ... basis set
              ...i.e. with spherical basis functions...

   type   atoms  prim   cont   basis
   ---------------------------------------------------------------------------
    o        2     70     49   def2-SV(P)   [6s4p3d1f1g|12s5p4d2f1g]
    c       10     70     49   def2-SV(P)   [6s4p3d1f1g|12s5p4d2f1g]
    s        2     77     51   def2-SV(P)   [8s4p3d1f1g|14s5p5d2f1g]
    n        2     70     49   def2-SV(P)   [6s4p3d1f1g|12s5p4d2f1g]
    h        4     16     11   def2-SV(P)   [3s1p1d|5s2p1d]
    br       1     89     58   def2-SV(P)   [8s4p3d2f1g|19s5p5d3f1g]
   ---------------------------------------------------------------------------
   total:   21   1287    890
   ---------------------------------------------------------------------------

   total number of primitive shells          :  140
   total number of contracted shells         :  282
   total number of cartesian basis functions : 1101
   total number of SCF-basis functions       :  890

 RPA SINGLET-EXCITATION-CALCULATION 
 
             FOUND DFT-FLAG !
 

 symmetry group of the molecule :   c1 

 the group has the following generators :
   c1(z)

    1 symmetry operations found

 there are 1 real representations :   a   

 maximum number of shells which are related by symmetry :  1

 IRREP of excited state :   a   
 

 determining totally symmetric integral contributions 
    - equivalent to irreducible tensor elements - 
 which can be formed within each triple of representations :

             representation triple      contributions

              a     a     a               1

    mo occupation :
   irrep   mo's   occupied
    a      272       81
 
 number of basis functions   :                    272
 number of occupied orbitals :                     81
 
  
           ------------------
           density functional
           ------------------
 PBE0 hybrid functional
 exchange:    3/4 (LDA+PBE) + 1/4 HF
 correlation: LDA (PW) + PBE

 iterations will be done with small grid
  
 spherical integration : Lebedev's spherical grid
 spherical gridsize    :                     5
    i.e. gridpoints    :                   590
 value for diffuse not defined
 radial integration    : Chebyshev 2nd kind (scaling 3)
 radial gridsize       :                     8
 integration cells     :                    21
 partition function    : becke
 partition sharpness   :                     3
  
  
           ----------------------
               RI - INFORMATION
           ----------------------

 biggest AO integral is expected to be    21.668154127

 Threshold for integral neglect (rithr2):   0.11E-10
 Threshold for integral neglect (rithr1):   0.11E-10

 Contributions to RI integral batches: 
  neglected integral batches:                  2115
  direct contribution:                            0
  memory contribution:                  5145
 Core memory available (ricore)            5000 MiB
 Core memory needed for (P|Q) and Cholesky 7 MiB
 Core memory used for integrals            250 MiB
  
 ****************************************
 Memory allocated for RIDFT 257 MiB
 ****************************************
                                            
  MOs are in ASCII format !


 reading orbital data $scfmo  from file mos
 orbital characterization : scfconv=7
 preparing numerical integration ....
          Overall gridpoints after grid construction =        122128

 Calculating ground state density on molecular grid

 Integral of ground state density: N =   162.0000043468798    



 number of non-frozen orbitals          :   272
 number of non-frozen occupied orbitals :    81



                        -------------------
                         excitation vector 
                        -------------------


 dimension of super-tensorspace: 2

          IRREP   tensor space dimension   number of roots

           a             15471                   1

 maximum number of Davidson iterations set to   25


 machine precision: 2.22D-16


 logfile sing_a    will be constructed


                       Nonorthonormal Krylov Space Iteration


 total number of roots to be determined:   1


 maximum core memory set to  5000 MB,
 corresponding to     3796 vectors in CAO basis


 maximum number of simultaneously treated vectors (including degeneracy):        2


 Iteration IRREP Converged      Max. Euclidean
                 roots          residual norm

    1       a        0        3.291023334111486D-02
 
    2       a        0        9.278212988606303D-02
 
    3       a        0        3.318068306317529D-02
 
    4       a        0        1.313336519140379D-02
 
    5       a        0        4.761069060563940D-03
 
    6       a        0        2.539696073019698D-03
 
    7       a        0        1.167987110493211D-03
 
    8       a        0        4.731079960988785D-04
 
    9       a        0        2.015220592503548D-04
 
   10       a        0        9.517056859797981D-05
 
   11       a        0        4.404316372667912D-05
 
   12       a        0        1.324785918999683D-05
 
   13       a        1        5.451467754841030D-06
 

 converged!


 Switching to fine grid

 preparing numerical integration ....
          Overall gridpoints after grid construction =        372360

 Calculating ground state density on molecular grid

 Integral of ground state density: N =   161.9999977641436    



 Iteration IRREP Converged      Max. Euclidean
                 roots          residual norm

   14       a        1        8.589420543508183D-06
 

 converged!

 Eigenpairs written on logfile sing_a   



 IRREP   Vector     Eigenvalue           Euclidean residual norm

  a         1    8.314886031161632D-02    8.589420543508183D-06
 




                    Selection rules for point group c1  


 Subduction with respect to c1  :

    Polar vector representation: a                           

    Axial vector representation: a                           

    Symmetric second rank tensor representation: a                           




                            Ground state


 Total energy:                           -4011.725307595000    

 Charge:

               elec          nuc         total

          -162.000000   161.000000    -1.000000


 Electric dipole moment:

               elec          nuc         total   

    x      637.975226  -632.923757     5.051469    Norm:              7.972609
    y     -783.253972   777.085908    -6.168064
    z       -0.773549     0.761139    -0.012410    Norm / debye:     20.264505


 Electric quadrupole moment:

               elec          nuc         total   

   xx    -7848.031486  7673.326413  -174.705073
   yy    -5937.380536  5800.688217  -136.692319    1/3*trace:      -134.737412
   zz      -98.514367     5.699522   -92.814845
   xy     4839.088626 -4804.304053    34.784573
   xz        6.886509    -6.827117     0.059392    Anisotropy:       93.102312
   yz      -10.138819    10.048297    -0.090521



 ==============================================================================

                              I R R E P   a   

 ==============================================================================


 Excitation is electric dipole allowed

 Excitation is magnetic dipole allowed

 Excitation is electric quadrupole allowed




                         1 singlet a excitation


 Total energy:                           -4011.642158734688    

 Excitation energy:                      0.8314886031161632E-01

 Excitation energy / eV:                  2.262596579023382    

 Excitation energy / nm:                  547.9732673333415    

 Excitation energy / cm^(-1):             18249.06541001788    


 Oscillator strength:

    velocity representation:             0.3054229386220912    

    length representation:               0.3560874551412265    

    mixed representation:                0.3297778062656326    


 Rotatory strength:

    velocity representation:            -0.9707711909647073E-05

    velocity rep. / 10^(-40)erg*cm^3:   -0.6271649456475158    

    length representation:              -0.1034590753454929E-04

    length rep. / 10^(-40)erg*cm^3:     -0.6683954568255956    


 Dominant contributions:

      occ. orbital   energy / eV   virt. orbital     energy / eV   |coeff.|^2*100
       81 a              -2.01          82 a               0.47       91.6
 

 Change of electron number:

             0.000000


 Electric transition dipole moment (velocity rep.):

    x       -2.307071        Norm:                  2.347298
    y        0.432706
    z        0.000586        Norm / debye:          5.966283


 Electric transition dipole moment (length rep.):

    x       -2.488251        Norm:                  2.534521
    y        0.482081
    z        0.000686        Norm / debye:          6.442157


 Magnetic transition dipole moment / i:

    x        0.000005        Norm:                  0.001086
    y        0.000004
    z        0.001086        Norm / Bohr mag.:      0.297549


 Electric quadrupole transition moment:

   xx       18.674863
   yy        4.428274        1/3*trace:             7.664330
   zz       -0.110145
   xy      -11.213022
   xz       -0.003339        Anisotropy:           25.795645
   yz        0.007434
 

 Excited state no.    1 chosen for optimization


                       ----------------------
                        CPKS right-hand side 
                       ----------------------


          IRREP   tensor space dimension   number of roots

           a             15471                   1

                          ----------------
                           CPKS equations 
                          ----------------


 logfile dipl_a    will be constructed

 Switching to coarse grid

 preparing numerical integration ....
          Overall gridpoints after grid construction =        122128


                       Nonorthonormal Krylov Space Iteration


 total number of roots to be determined:   1


 maximum core memory set to  5000 MB,
 corresponding to     7544 vectors in CAO basis


 maximum number of simultaneously treated vectors (including degeneracy):        1


 Iteration IRREP Converged      Max. Euclidean
                 roots          residual norm

    1       a        0        1.092691800508934D-01
 
    2       a        0        4.877236021172651D-02
 
    3       a        0        2.240175634648506D-02
 
    4       a        0        9.477340536389295D-03
 
    5       a        0        3.556889798424954D-03
 
    6       a        0        1.242192822552494D-03
 
    7       a        0        4.743536678341941D-04
 
    8       a        0        1.630092659316400D-04
 
    9       a        0        8.207733459641108D-05
 
   10       a        0        1.908941467268087D-05
 
   11       a        1        8.097129079158560D-06
 

 converged!


 Switching to fine grid

 preparing numerical integration ....
          Overall gridpoints after grid construction =        372360

 Iteration IRREP Converged      Max. Euclidean
                 roots          residual norm

   12       a        0        1.632441042585557D-05
 

 NOTE: Residual norms are larger than 1.00D-05 due to mgrid option!

 Eigenpairs written on logfile dipl_a   



 IRREP   Vector     Frequency            Euclidean residual norm

  a         1    0.000000000000000D+00    1.632441042585557D-05
 

                          -------------------
                           relaxed densities 
                          -------------------


    ----------------------------------------
     S+T+V CONTRIBUTIONS TO ENERGY GRADIENT 
    ----------------------------------------

 1e-integral 1st. derivatives will be neglected if expon. factor < 0.100000E-10


    -----------------------------------------------
     TWO ELECTRON CONTRIBUTIONS TO ENERGY GRADIENT 
    -----------------------------------------------

 setting up bound for integral derivative estimation

 increment for numerical differentiation : 0.00050000

 biggest AO integral is expected to be    21.668154127
 biggest cartesian 1st derivative AO integral is expected to be    83.347447328

 biggest 1-particle AO density matrix element is expected to be    3.2069890420

 core memory to be involved in 2e-gradient :
   symmetry shell pair data              :         1
   two particle density+dens. estimates  :      8556
   derivative integrals                  :      8498
   derivative integral bound             :     21780
   totally                               :     30276


 setting up bound for integral derivative estimation

 increment for numerical differentiation : 0.00050000

 biggest AO integral is expected to be    21.668154127
 biggest cartesian 1st derivative AO integral is expected to be    83.347447328

 2e-integral 1st. derivatives will be neglected if expon. factor < 0.100000E-06
 outer boundary for 2e-integral derivative neglection is 0.162052E-08

 Integrated ground state density     :   161.9999977641428    


          ------------------------------------------------
           cartesian gradient of the energy (hartree/bohr)
          ------------------------------------------------

  ATOM      1 o           2 c           3 c           4 c           5 c 
dE/dx  0.1328963D-02 -0.1352766D-02 -0.2192565D-02  0.3268093D-02  0.6349790D-03
dE/dy -0.4412177D-04 -0.1132207D-02  0.1707204D-03  0.2780994D-02 -0.3016601D-02
dE/dz  0.4049396D-03 -0.1047448D-02  0.2777205D-03  0.3800776D-03 -0.7123893D-03

  ATOM      6 c           7 c           8 s           9 c          10 n 
dE/dx -0.2284362D-02  0.3358366D-02 -0.1207164D-02 -0.4429308D-02  0.2739907D-02
dE/dy -0.2207389D-02  0.2415371D-02 -0.1355040D-02 -0.5280338D-03  0.2534505D-02
dE/dz  0.5493836D-03  0.3460426D-03 -0.2033914D-03  0.3767644D-03  0.1022952D-03

  ATOM     11 c          12 s          13 n          14 c          15 c 
dE/dx -0.9546396D-04  0.2353180D-04  0.3555406D-02 -0.1753598D-03 -0.1604132D-02
dE/dy -0.3116049D-02 -0.1041273D-03  0.2337864D-02 -0.1986476D-03  0.1336783D-02
dE/dz -0.6460524D-03  0.1995783D-03  0.5779085D-03 -0.6946257D-03  0.8335157D-03

  ATOM     16 h          17 h          18 o          19 br         20 h 
dE/dx  0.4541328D-03  0.8509164D-03 -0.1680496D-02  0.1547057D-03  0.4734556D-03
dE/dy -0.1567135D-03 -0.2842350D-03 -0.6172487D-03  0.5241664D-03  0.1751847D-02
dE/dz  0.1392727D-03 -0.7788220D-03  0.1879558D-03 -0.2343244D-04 -0.2008600D-03

  ATOM     21 h 
dE/dx -0.1832714D-02
dE/dy -0.1106092D-02
dE/dz -0.6862823D-04
 
 resulting FORCE  (fx,fy,fz) = (-.119D-04,-.143D-04,-.195D-06)
 resulting MOMENT (mx,my,mz) = (0.223D-04,0.549D-04,0.433D-04)


 **********************************************************************
  |maximum component of gradient| : 0.44293084E-02  (atom  9 c )       
   gradient norm                  : 0.12325669E-01
 **********************************************************************

 exx =      -0.008384 eyy =       0.000012 ezz =       0.001565
 eyz =       0.000257 exz =      -0.000691 exy =      -0.001798


 <getgrd> : data group $grad  is missing 

   ***  cartesian gradients written onto <gradient>  ***
 
 
 
 ==============================================================================
                           electrostatic moments
 ==============================================================================

 reference point for electrostatic moments:    0.00000   0.00000   0.00000

 
              nuc           gs,e       ->  gs,tot          excit     ->  total
 ------------------------------------------------------------------------------
                          charge      
 ------------------------------------------------------------------------------
         161.000000    -162.000000      -1.000000       0.000000      -1.000000
 
 ------------------------------------------------------------------------------
                       dipole moment  
 ------------------------------------------------------------------------------
   x    -632.923757     637.975226       5.051469      -1.266125       3.785343
   y     777.085908    -783.253972      -6.168064       1.280965      -4.887098
   z       0.761139      -0.773549      -0.012410       0.004397      -0.008013
 
   | dipole moment | =     6.1816 a.u. =    15.7122 debye 
 
 ------------------------------------------------------------------------------
                     quadrupole moment
 ------------------------------------------------------------------------------
  xx    7673.326413   -7848.031486    -174.705073       2.208860    -172.496213
  yy    5800.688217   -5937.380536    -136.692319      13.682141    -123.010178
  zz       5.699522     -98.514367     -92.814845       0.199147     -92.615698
  xy   -4804.304053    4839.088626      34.784573     -12.264416      22.520157
  xz      -6.827117       6.886509       0.059392      -0.028169       0.031223
  yz      10.048297     -10.138819      -0.090521       0.030795      -0.059727
 
     1/3  trace=    -129.374030
     anisotropy=      79.989252
 
 ==============================================================================
 


    ------------------------------------------------------------------------
         total  cpu-time :  5 minutes and 44 seconds
         total wall-time :  5 minutes and 44 seconds
    ------------------------------------------------------------------------

   ****  egrad : all done  ****


    2018-02-09 13:12:14.510 

$dipole from egrad
  x     3.78534349722213    y    -4.88709849503368    z    -0.00801290100177    a.u.
   | dipole | =   15.7122697504  debye
/work/bdnguye2/luc_project/7_brluc/ex_geo_opt/save/numforce/KraftWerk/p011
