 operating system is UNIX !

 ridft (missouri) : TURBOMOLE V7.2 ( 21454 ) 4 Oct 2017 at 12:48:15
 Copyright (C) 2017 TURBOMOLE GmbH, Karlsruhe


    2018-02-09 13:25:59.588 



                                  r i d f t

                        DFT program with RI approximation 
                                for coulomb part 




                                                 
                                 References:     
                                                 
          TURBOMOLE:                             
              R. Ahlrichs, M. Baer, M. Haeser, H. Horn, and
              C. Koelmel
              Electronic structure calculations on workstation
              computers: the program system TURBOMOLE
              Chem. Phys. Lett. 162: 165 (1989)
          Density Functional:                              
              O. Treutler and R. Ahlrichs                      
              Efficient Molecular Numerical Integration Schemes
              J. Chem. Phys. 102: 346 (1995)                   
          Parallel Version:                                
              Performance of parallel TURBOMOLE for Density    
              Functional Calculations                          
              M. v. Arnim and R. Ahlrichs                      
              J. Comp. Chem. 19: 1746 (1998)                   
          RI-J Method:                                     
              Auxiliary Basis Sets to approximate Coulomb      
              Potentials                                       
              Chem. Phys. Lett. 240: 283 (1995)                
              K. Eichkorn, O. Treutler, H. Oehm, M. Haeser     
              and R. Ahlrichs                                  
              Chem. Phys. Lett. 242: 652 (1995)                
                                                           
              Auxiliary Basis Sets for Main Row Atoms and their
              Use to approximate Coulomb Potentials            
              K. Eichkorn, F. Weigend, O. Treutler and         
              R. Ahlrichs                                      
              Theo. Chem. Acc. 97: 119 (1997)                   
                                                           
              Accurate Coulomb-fitting basis sets for H to Rn 
              F. Weigend                                        
              Phys. Chem. Chem. Phys. 8: 1057 (2006)            
                                                           
          Multipole accelerated RI-J (MARI-J):             
              Fast evaluation of the Coulomb potential for     
              electron densities using multipole accelerated   
              resolution of identity approximation             
              M. Sierka, A. Hogekamp and R. Ahlrichs           
              J. Chem. Phys. 118: 9136 (2003)                  
          RI-JK Method:                                     
              A fully direct RI-HF algorithm: Implementation,
              optimised auxiliary basis sets, demonstration of
              accuracy and efficiency                         
              F. Weigend                                      
              Phys. Chem. Chem. Phys. 4: 4285 (2002)           
          Two-component HF and DFT with spin-orbit coupling:  
              Self-consistent treatment of spin-orbit         
              interactions with efficient Hartree-Fock and    
              density functional methods                      
              M. K. Armbruster, F. Weigend, C. van Wüllen and 
              W. Klopper                                      
              Phys. Chem. Chem. Phys. 10: 1748 (2008)         
          Relativistic all-electron 2c calculations           
              An efficient implementation of two-component    
              relativistic exact-decoupling methods for large 
              molecules                                       
              D. Peng, N. Middendorf, F. Weigend, M. Reiher   
              J. Chem. Phys. 138, 184105 (2013)               
                                         




              +--------------------------------------------------+
              |      general information about current run       |
              +--------------------------------------------------+

 
 PBE0 hybrid functional
 exchange:    3/4 (LDA+PBE) + 1/4 HF
 correlation: LDA (PW) + PBE
 A Hybrid-DFT calculation using the RI-J approximation will be carried out.
 Allocatable memory for RI due to $ricore (MB):                  5000


              +--------------------------------------------------+
              | Atomic coordinate, charge and isotop information |
              +--------------------------------------------------+

                    atomic coordinates            atom    charge  isotop
        -12.81047757    6.80656977    0.00746768    o      8.000     0
        -10.87171901    5.50125868    0.00169026    c      6.000     0
         -8.33158310    6.66613517    0.01166128    c      6.000     0
         -6.09728111    5.18836652    0.00121482    c      6.000     0
         -6.19861300    2.53229045   -0.00240255    c      6.000     0
         -8.59458979    1.37083191   -0.01401452    c      6.000     0
        -10.80579783    2.77017406   -0.00720334    c      6.000     0
         -3.01217704    6.22318142    0.00909959    s     16.000     0
         -2.04242817    3.03004061   -0.00368140    c      6.000     0
         -3.85521774    1.36097818   -0.00572711    n      7.000     0
          0.62968754    2.54797575   -0.00458365    c      6.000     0
          1.62093517   -0.65347050   -0.00835943    s     16.000     0
          2.37460314    4.30882282    0.00446787    n      7.000     0
          4.77521831    3.37142441    0.00600879    c      6.000     0
          4.85432463    0.44553578   -0.00500353    c      6.000     0
          5.87843186   -0.23769556    1.67599818    h      1.000     0
          5.88666628   -0.22308594   -1.69524048    h      1.000     0
          6.72661444    4.59216763    0.01117757    o      8.000     0
         -8.16347655   10.16871635    0.02220665    br    35.000     0
         -8.67194987   -0.70239915   -0.01906944    h      1.000     0
        -12.64716089    1.84174576   -0.01422097    h      1.000     0
 
       center of nuclear mass  :   -4.07480316    5.04305240    0.00557605
       center of nuclear charge:   -3.92961154    4.82684297    0.00483855

              +--------------------------------------------------+
              |               basis set information              |
              +--------------------------------------------------+

              we will work with the 1s 3p 5d 7f 9g ... basis set
              ...i.e. with spherical basis functions...

   type   atoms  prim   cont   basis
   ---------------------------------------------------------------------------
    o        2     24     14   def2-SV(P)   [3s2p1d|7s4p1d]
    c       10     24     14   def2-SV(P)   [3s2p1d|7s4p1d]
    s        2     36     18   def2-SV(P)   [4s3p1d|10s7p1d]
    n        2     24     14   def2-SV(P)   [3s2p1d|7s4p1d]
    h        4      4      2   def2-SV(P)   [2s|4s]
    br       1     74     32   def2-SV(P)   [5s4p3d|14s10p6d]
   ---------------------------------------------------------------------------
   total:   21    498    272
   ---------------------------------------------------------------------------

   total number of primitive shells          :   88
   total number of contracted shells         :  120
   total number of cartesian basis functions :  291
   total number of SCF-basis functions       :  272


 integral neglect threshold       :  0.11E-10
 integral storage threshold THIZE :  0.10E-04
 integral storage threshold THIME :         5

 RI-J AUXILIARY BASIS SET information:

              we will work with the 1s 3p 5d 7f 9g ... basis set
              ...i.e. with spherical basis functions...

   type   atoms  prim   cont   basis
   ---------------------------------------------------------------------------
    o        2     70     49   def2-SV(P)   [6s4p3d1f1g|12s5p4d2f1g]
    c       10     70     49   def2-SV(P)   [6s4p3d1f1g|12s5p4d2f1g]
    s        2     77     51   def2-SV(P)   [8s4p3d1f1g|14s5p5d2f1g]
    n        2     70     49   def2-SV(P)   [6s4p3d1f1g|12s5p4d2f1g]
    h        4     16     11   def2-SV(P)   [3s1p1d|5s2p1d]
    br       1     89     58   def2-SV(P)   [8s4p3d2f1g|19s5p5d3f1g]
   ---------------------------------------------------------------------------
   total:   21   1287    890
   ---------------------------------------------------------------------------

   total number of primitive shells          :  140
   total number of contracted shells         :  282
   total number of cartesian basis functions : 1101
   total number of SCF-basis functions       :  890


 symmetry group of the molecule :   c1 

 the group has the following generators :
   c1(z)

    1 symmetry operations found

 there are 1 real representations :   a   

 maximum number of shells which are related by symmetry :  1


    mo occupation :
   irrep   mo's   occupied
    a      272       81
 
 number of basis functions   :                    272
 number of occupied orbitals :                     81
 
  
           ------------------
           density functional
           ------------------
 PBE0 hybrid functional
 exchange:    3/4 (LDA+PBE) + 1/4 HF
 correlation: LDA (PW) + PBE

 iterations will be done with small grid
  
 spherical integration : Lebedev's spherical grid
 spherical gridsize    :                     5
    i.e. gridpoints    :                   590
 value for diffuse not defined
 radial integration    : Chebyshev 2nd kind (scaling 3)
 radial gridsize       :                     8
 integration cells     :                    21
 partition function    : becke
 partition sharpness   :                     3
  

 biggest AO integral is expected to be    21.668154127
  
           ------------------------
               RI-J - INFORMATION
           ------------------------
 Contributions to RI integral batches: 
  neglected integral batches:                  2259
  direct contribution:                            0
  memory contribution:                  5001
 Memory core needed for (P|Q) and Cholesky      7 MByte
 Memory core minimum needed except of (P|Q)     1 MByte
 Total minimum memory core needed (sum)         7 MByte
  
 ****************************************
 Memory allocated for RI-J   249 MByte
 ****************************************
                                            

          ------------------------
          nuclear repulsion energy  :   1710.69810111    
          ------------------------


         -----------------
         -S,T+V- integrals
         -----------------

 1e-integrals will be neglected if expon. factor < 0.114844E-11
 
   Difference densities algorithm switched on.
   The maximal number of linear combinations of
   difference densities is                    20 .

 DIIS switched on: error vector is FDS-SDF
 Max. Iterations for DIIS is     :   4
 DIIS matrix (see manual) 
    Scaling factor of diagonals  :  1.200
    threshold for scaling factor :  0.000

 scf convergence criterion : increment of total energy < .1000000D-06
                  and increment of one-electron energy < .1000000D-03

  MOs are in ASCII format !


 automatic virtual orbital shift switched on 
      shift if e(lumo)-e(homo) < 0.10000000    


 reading orbital data $scfmo  from file mos
 orbital characterization : scfconv=7

 dump of DSCF restart information has been disabled !


 Starting SCF iterations

          Overall gridpoints after grid construction =        122130

 ITERATION  ENERGY          1e-ENERGY        2e-ENERGY     NORM[dD(SAO)]  TOL
   1  -4011.7248530342    -8982.2494776     3259.8265234    0.000D+00 0.115D-10
                            Exc = -172.725396842     Coul =  3488.21068638    
                            exK = -55.6587661278    
                              N = 162.00000525    
                            current damping = 0.700
 
          max. resid. norm for Fia-block=  4.686D-03 for orbital      1a         
          max. resid. fock norm         =  1.092D-02 for orbital    199a         

 ITERATION  ENERGY          1e-ENERGY        2e-ENERGY     NORM[dD(SAO)]  TOL
   2  -4011.7249094365    -8982.2462412     3259.8232307    0.335D-01 0.726D-11
                            Exc = -172.725330991      Eck =  3432.54856167    
                              N = 162.00000523    
                            current damping = 0.650
 
          Norm of current diis error: 0.84183E-02
          max. resid. norm for Fia-block=  1.930D-03 for orbital      1a         
          max. resid. fock norm         =  3.868D-03 for orbital    188a         

 ITERATION  ENERGY          1e-ENERGY        2e-ENERGY     NORM[dD(SAO)]  TOL
   3  -4011.7249201419    -8982.2548853     3259.8318640    0.587D-02 0.558D-11
                            Exc = -172.725449368      Eck =  3432.55731341    
                              N = 162.00000525    
                            current damping = 0.600
 
          Norm of current diis error: 0.49623E-02
          max. resid. norm for Fia-block=  7.603D-04 for orbital      1a         
          max. resid. fock norm         =  1.529D-03 for orbital    188a         

 ITERATION  ENERGY          1e-ENERGY        2e-ENERGY     NORM[dD(SAO)]  TOL
   4  -4011.7249242125    -8982.2476586     3259.8246332    0.217D-02 0.518D-11
                            Exc = -172.725409786      Eck =  3432.55004302    
                              N = 162.00000521    
                            current damping = 0.650
 
          Norm of current diis error: 0.18646E-02
          max. resid. norm for Fia-block=  2.852D-04 for orbital      1a         
          max. resid. fock norm         =  5.735D-04 for orbital    188a         

 ITERATION  ENERGY          1e-ENERGY        2e-ENERGY     NORM[dD(SAO)]  TOL
   5  -4011.7249248406    -8982.2500865     3259.8270605    0.119D-02 0.496D-11
                            Exc = -172.725335741      Eck =  3432.55239627    
                              N = 162.00000522    
                            current damping = 0.700
 
          Norm of current diis error: 0.83523E-03
          max. resid. norm for Fia-block=  1.123D-04 for orbital      1a         
          max. resid. fock norm         =  2.267D-04 for orbital    188a         
          mo-orthogonalization: Cholesky decomposition

 ITERATION  ENERGY          1e-ENERGY        2e-ENERGY     NORM[dD(SAO)]  TOL
   6  -4011.7249252089    -8982.2497102     3259.8266839    0.483D-03 0.480D-11
                            Exc = -172.725411765      Eck =  3432.55209565    
                              N = 162.00000522    
                            current damping = 0.750
 
          Norm of current diis error: 0.39530E-03
          max. resid. norm for Fia-block=  4.625D-05 for orbital      1a         
          max. resid. fock norm         =  9.441D-05 for orbital    188a         

 ITERATION  ENERGY          1e-ENERGY        2e-ENERGY     NORM[dD(SAO)]  TOL
   7  -4011.7249252387    -8982.2501419     3259.8271155    0.171D-03 0.470D-11
                            Exc = -172.725389194      Eck =  3432.55250471    
                              N = 162.00000522    
                            current damping = 0.800
 
          Norm of current diis error: 0.17700E-03
          max. resid. norm for Fia-block=  1.982D-05 for orbital      1a         
          max. resid. fock norm         =  4.027D-05 for orbital    188a         

 ENERGY CONVERGED !

          Overall gridpoints after grid construction =        372357

 ITERATION  ENERGY          1e-ENERGY        2e-ENERGY     NORM[dD(SAO)]  TOL
   8  -4011.7249217431    -8982.2497798     3259.8267569    0.712D-04 0.463D-11
                            Exc = -172.725384308      Eck =  3432.55214124    
                              N = 161.99999777    
                            current damping = 0.850
 
          Norm of current diis error: 0.92818E-04
          max. resid. norm for Fia-block=  8.813D-06 for orbital      1a         
          max. resid. fock norm         =  1.912D-05 for orbital    188a         

 End of SCF iterations

   convergence criteria satisfied after     8 iterations


                  ------------------------------------------ 
                 |  total energy      =  -4011.72492174312  |
                  ------------------------------------------ 
                 :  kinetic energy    =   4002.29605246715  :
                 :  potential energy  =  -8014.02097421027  :
                 :  virial theorem    =      1.99764967203  :
                 :  wavefunction norm =      1.00000000000  :
                  .......................................... 


 <geterg> : there is no data group $energy 


 orbitals $scfmo  will be written to file mos

    irrep                 77a         78a         79a         80a         81a   
 eigenvalues H         -0.16866    -0.16330    -0.12840    -0.11942    -0.07365
            eV          -4.5894     -4.4438     -3.4938     -3.2496     -2.0042
 occupation              2.0000      2.0000      2.0000      2.0000      2.0000 

    irrep                 82a         83a         84a         85a         86a   
 eigenvalues H          0.01686     0.10831     0.11922     0.12741     0.13552
            eV           0.4588      2.9474      3.2441      3.4670      3.6876
 
 
 
 
 ==============================================================================
                           electrostatic moments
 ==============================================================================

 reference point for electrostatic moments:    0.00000   0.00000   0.00000

 
              nuc           elec       ->  total
 ------------------------------------------------------------------------------
                          charge      
 ------------------------------------------------------------------------------
         161.000000    -162.000000      -1.000000
 
 ------------------------------------------------------------------------------
                       dipole moment  
 ------------------------------------------------------------------------------
   x    -632.667458     637.717701       5.050243
   y     777.121718    -783.285150      -6.163431
   z       0.779007      -0.789503      -0.010496
 
   | dipole moment | =     7.9682 a.u. =    20.2533 debye 
 
 ------------------------------------------------------------------------------
                     quadrupole moment
 ------------------------------------------------------------------------------
  xx    7671.069982   -7845.673572    -174.603591
  yy    5800.781572   -5937.396737    -136.615165
  zz       5.707834     -98.524796     -92.816962
  xy   -4802.061293    4836.753212      34.691919
  xz      -6.121464       6.161785       0.040321
  yz      10.021084     -10.102573      -0.081489
 
     1/3  trace=    -134.678572
     anisotropy=      92.929223
 
 ==============================================================================
 


    ------------------------------------------------------------------------
         total  cpu-time :  1 minutes and  8 seconds
         total wall-time :  1 minutes and  8 seconds
    ------------------------------------------------------------------------

   ****  ridft : all done  ****


    2018-02-09 13:27:07.972 


 egrad (missouri) : TURBOMOLE V7.2 ( 21454 ) 4 Oct 2017 at 12:24:43
 Copyright (C) 2017 TURBOMOLE GmbH, Karlsruhe


    2018-02-09 13:27:07.990 




                               e g r a d

                             TURBOMOLE GmbH


             integral direct evaluation of excited state
                     and polarizability gradients
                 and first-order nonadiabatic couplings



          references (see also programs escf, dscf and ridft) 

          review 
          F. Furche and D. Rappoport,  
          "Density functional methods for excited states: 
          equilibrium structure and electronic spectra",
          ch. III of "Computational Photochemistry", ed. by 
          M. Olivucci, vol. 16 of "Theoretical and Computational 
          Chemistry", Elsevier, Amsterdam, 2005.

          nonorthonormal Krylov space methods 
          F. Furche, B. T. Krull, B. D. Nguyen, J. Kwon, 
          J. Chem. Phys. 144 (2016), 174105.

          RI-J method 
          D. Rappoport and F. Furche, 
          J. Chem. Phys. 122 (2005), 064105.

          Lagrangian method, implementation, benchmarks 
          F. Furche and R. Ahlrichs,
          J. Chem. Phys. 117 (2002), 7433;
          J. Chem. Phys. 121 (2004), 12772 (E).

          Polarizability derivatives, Raman intensities 
          D. Rappoport and F. Furche, 
          J. Chem. Phys. 126 (2007), 201104.

          First-order nonadiabatic couplings 
          R. Send and F. Furche, 
          J. Chem. Phys. 132 (2010), 044107.
                                     




              +--------------------------------------------------+
              | Atomic coordinate, charge and isotop information |
              +--------------------------------------------------+

                    atomic coordinates            atom    charge  isotop
        -12.81047757    6.80656977    0.00746768    o      8.000     0
        -10.87171901    5.50125868    0.00169026    c      6.000     0
         -8.33158310    6.66613517    0.01166128    c      6.000     0
         -6.09728111    5.18836652    0.00121482    c      6.000     0
         -6.19861300    2.53229045   -0.00240255    c      6.000     0
         -8.59458979    1.37083191   -0.01401452    c      6.000     0
        -10.80579783    2.77017406   -0.00720334    c      6.000     0
         -3.01217704    6.22318142    0.00909959    s     16.000     0
         -2.04242817    3.03004061   -0.00368140    c      6.000     0
         -3.85521774    1.36097818   -0.00572711    n      7.000     0
          0.62968754    2.54797575   -0.00458365    c      6.000     0
          1.62093517   -0.65347050   -0.00835943    s     16.000     0
          2.37460314    4.30882282    0.00446787    n      7.000     0
          4.77521831    3.37142441    0.00600879    c      6.000     0
          4.85432463    0.44553578   -0.00500353    c      6.000     0
          5.87843186   -0.23769556    1.67599818    h      1.000     0
          5.88666628   -0.22308594   -1.69524048    h      1.000     0
          6.72661444    4.59216763    0.01117757    o      8.000     0
         -8.16347655   10.16871635    0.02220665    br    35.000     0
         -8.67194987   -0.70239915   -0.01906944    h      1.000     0
        -12.64716089    1.84174576   -0.01422097    h      1.000     0
 
       center of nuclear mass  :   -4.07480316    5.04305240    0.00557605
       center of nuclear charge:   -3.92961154    4.82684297    0.00483855

              +--------------------------------------------------+
              |               basis set information              |
              +--------------------------------------------------+

              we will work with the 1s 3p 5d 7f 9g ... basis set
              ...i.e. with spherical basis functions...

   type   atoms  prim   cont   basis
   ---------------------------------------------------------------------------
    o        2     24     14   def2-SV(P)   [3s2p1d|7s4p1d]
    c       10     24     14   def2-SV(P)   [3s2p1d|7s4p1d]
    s        2     36     18   def2-SV(P)   [4s3p1d|10s7p1d]
    n        2     24     14   def2-SV(P)   [3s2p1d|7s4p1d]
    h        4      4      2   def2-SV(P)   [2s|4s]
    br       1     74     32   def2-SV(P)   [5s4p3d|14s10p6d]
   ---------------------------------------------------------------------------
   total:   21    498    272
   ---------------------------------------------------------------------------

   total number of primitive shells          :   88
   total number of contracted shells         :  120
   total number of cartesian basis functions :  291
   total number of SCF-basis functions       :  272


 residuum convergence criterium   :  0.10E-04


 integral neglect threshold       :  0.11E-10
 integral storage threshold THIZE :  0.10E-04
 integral storage threshold THIME :         5

 
             FOUND RI-J FLAG !
 
  
 AUXILIARY BASIS SET information:

              we will work with the 1s 3p 5d 7f 9g ... basis set
              ...i.e. with spherical basis functions...

   type   atoms  prim   cont   basis
   ---------------------------------------------------------------------------
    o        2     70     49   def2-SV(P)   [6s4p3d1f1g|12s5p4d2f1g]
    c       10     70     49   def2-SV(P)   [6s4p3d1f1g|12s5p4d2f1g]
    s        2     77     51   def2-SV(P)   [8s4p3d1f1g|14s5p5d2f1g]
    n        2     70     49   def2-SV(P)   [6s4p3d1f1g|12s5p4d2f1g]
    h        4     16     11   def2-SV(P)   [3s1p1d|5s2p1d]
    br       1     89     58   def2-SV(P)   [8s4p3d2f1g|19s5p5d3f1g]
   ---------------------------------------------------------------------------
   total:   21   1287    890
   ---------------------------------------------------------------------------

   total number of primitive shells          :  140
   total number of contracted shells         :  282
   total number of cartesian basis functions : 1101
   total number of SCF-basis functions       :  890

 RPA SINGLET-EXCITATION-CALCULATION 
 
             FOUND DFT-FLAG !
 

 symmetry group of the molecule :   c1 

 the group has the following generators :
   c1(z)

    1 symmetry operations found

 there are 1 real representations :   a   

 maximum number of shells which are related by symmetry :  1

 IRREP of excited state :   a   
 

 determining totally symmetric integral contributions 
    - equivalent to irreducible tensor elements - 
 which can be formed within each triple of representations :

             representation triple      contributions

              a     a     a               1

    mo occupation :
   irrep   mo's   occupied
    a      272       81
 
 number of basis functions   :                    272
 number of occupied orbitals :                     81
 
  
           ------------------
           density functional
           ------------------
 PBE0 hybrid functional
 exchange:    3/4 (LDA+PBE) + 1/4 HF
 correlation: LDA (PW) + PBE

 iterations will be done with small grid
  
 spherical integration : Lebedev's spherical grid
 spherical gridsize    :                     5
    i.e. gridpoints    :                   590
 value for diffuse not defined
 radial integration    : Chebyshev 2nd kind (scaling 3)
 radial gridsize       :                     8
 integration cells     :                    21
 partition function    : becke
 partition sharpness   :                     3
  
  
           ----------------------
               RI - INFORMATION
           ----------------------

 biggest AO integral is expected to be    21.668154127

 Threshold for integral neglect (rithr2):   0.11E-10
 Threshold for integral neglect (rithr1):   0.11E-10

 Contributions to RI integral batches: 
  neglected integral batches:                  2115
  direct contribution:                            0
  memory contribution:                  5145
 Core memory available (ricore)            5000 MiB
 Core memory needed for (P|Q) and Cholesky 7 MiB
 Core memory used for integrals            250 MiB
  
 ****************************************
 Memory allocated for RIDFT 257 MiB
 ****************************************
                                            
  MOs are in ASCII format !


 reading orbital data $scfmo  from file mos
 orbital characterization : scfconv=7
 preparing numerical integration ....
          Overall gridpoints after grid construction =        122130

 Calculating ground state density on molecular grid

 Integral of ground state density: N =   162.0000052227761    



 number of non-frozen orbitals          :   272
 number of non-frozen occupied orbitals :    81



                        -------------------
                         excitation vector 
                        -------------------


 dimension of super-tensorspace: 2

          IRREP   tensor space dimension   number of roots

           a             15471                   1

 maximum number of Davidson iterations set to   25


 machine precision: 2.22D-16


 logfile sing_a    will be constructed


                       Nonorthonormal Krylov Space Iteration


 total number of roots to be determined:   1


 maximum core memory set to  5000 MB,
 corresponding to     3796 vectors in CAO basis


 maximum number of simultaneously treated vectors (including degeneracy):        2


 Iteration IRREP Converged      Max. Euclidean
                 roots          residual norm

    1       a        0        2.982562751499877D-02
 
    2       a        0        2.780511538797683D-02
 
    3       a        0        6.536002805813132D-02
 
    4       a        0        2.336354727841551D-02
 
    5       a        0        8.464860218677206D-03
 
    6       a        0        4.036438238885050D-03
 
    7       a        0        1.713683879691026D-03
 
    8       a        0        7.883514921799802D-04
 
    9       a        0        3.353477707791504D-04
 
   10       a        0        1.351558210827240D-04
 
   11       a        0        6.696829536350121D-05
 
   12       a        0        2.476431503779759D-05
 
   13       a        1        8.979806761124079D-06
 

 converged!


 Switching to fine grid

 preparing numerical integration ....
          Overall gridpoints after grid construction =        372357

 Calculating ground state density on molecular grid

 Integral of ground state density: N =   161.9999977726136    



 Iteration IRREP Converged      Max. Euclidean
                 roots          residual norm

   14       a        0        1.105921123132295D-05
 

 NOTE: Residual norms are larger than 1.00D-05 due to mgrid option!

 Eigenpairs written on logfile sing_a   



 IRREP   Vector     Eigenvalue           Euclidean residual norm

  a         1    8.276461112692730D-02    1.105921123132295D-05
 




                    Selection rules for point group c1  


 Subduction with respect to c1  :

    Polar vector representation: a                           

    Axial vector representation: a                           

    Symmetric second rank tensor representation: a                           




                            Ground state


 Total energy:                           -4011.724921743000    

 Charge:

               elec          nuc         total

          -162.000000   161.000000    -1.000000


 Electric dipole moment:

               elec          nuc         total   

    x      637.717701  -632.667458     5.050243    Norm:              7.968246
    y     -783.285150   777.121718    -6.163431
    z       -0.789503     0.779007    -0.010496    Norm / debye:     20.253414


 Electric quadrupole moment:

               elec          nuc         total   

   xx    -7845.673572  7671.069982  -174.603591
   yy    -5937.396737  5800.781572  -136.615165    1/3*trace:      -134.678572
   zz      -98.524796     5.707834   -92.816962
   xy     4836.753212 -4802.061293    34.691919
   xz        6.161785    -6.121464     0.040321    Anisotropy:       92.929223
   yz      -10.102573    10.021084    -0.081489



 ==============================================================================

                              I R R E P   a   

 ==============================================================================


 Excitation is electric dipole allowed

 Excitation is magnetic dipole allowed

 Excitation is electric quadrupole allowed




                         1 singlet a excitation


 Total energy:                           -4011.642157131873    

 Excitation energy:                      0.8276461112692730E-01

 Excitation energy / eV:                  2.252140622230809    

 Excitation energy / nm:                  550.5173290807145    

 Excitation energy / cm^(-1):             18164.73246211148    


 Oscillator strength:

    velocity representation:             0.3038292308681843    

    length representation:               0.3546067560153685    

    mixed representation:                0.3282317320736374    


 Rotatory strength:

    velocity representation:            -0.1482541343454282E-05

    velocity rep. / 10^(-40)erg*cm^3:   -0.9577931130853910E-01

    length representation:              -0.7652806817639006E-06

    length rep. / 10^(-40)erg*cm^3:     -0.4944081794460663E-01


 Dominant contributions:

      occ. orbital   energy / eV   virt. orbital     energy / eV   |coeff.|^2*100
       81 a              -2.00          82 a               0.46       91.6
 

 Change of electron number:

             0.000000


 Electric transition dipole moment (velocity rep.):

    x       -2.305898        Norm:                  2.346595
    y        0.435135
    z       -0.000154        Norm / debye:          5.964494


 Electric transition dipole moment (length rep.):

    x       -2.488301        Norm:                  2.535110
    y        0.484914
    z        0.000596        Norm / debye:          6.443655


 Magnetic transition dipole moment / i:

    x        0.000001        Norm:                  0.001044
    y        0.000003
    z        0.001044        Norm / Bohr mag.:      0.286264


 Electric quadrupole transition moment:

   xx       18.662080
   yy        4.460448        1/3*trace:             7.671190
   zz       -0.108958
   xy      -11.225592
   xz       -0.002877        Anisotropy:           25.797301
   yz        0.006103
 

 Excited state no.    1 chosen for optimization


                       ----------------------
                        CPKS right-hand side 
                       ----------------------


          IRREP   tensor space dimension   number of roots

           a             15471                   1

                          ----------------
                           CPKS equations 
                          ----------------


 logfile dipl_a    will be constructed

 Switching to coarse grid

 preparing numerical integration ....
          Overall gridpoints after grid construction =        122130


                       Nonorthonormal Krylov Space Iteration


 total number of roots to be determined:   1


 maximum core memory set to  5000 MB,
 corresponding to     7544 vectors in CAO basis


 maximum number of simultaneously treated vectors (including degeneracy):        1


 Iteration IRREP Converged      Max. Euclidean
                 roots          residual norm

    1       a        0        1.093937137655960D-01
 
    2       a        0        4.891135494656104D-02
 
    3       a        0        2.250752763530516D-02
 
    4       a        0        9.516980425770198D-03
 
    5       a        0        3.576248327215845D-03
 
    6       a        0        1.249337488983565D-03
 
    7       a        0        4.809779976854699D-04
 
    8       a        0        1.656809017521185D-04
 
    9       a        0        8.286823384003644D-05
 
   10       a        0        1.918456375248060D-05
 
   11       a        1        8.141851858088669D-06
 

 converged!


 Switching to fine grid

 preparing numerical integration ....
          Overall gridpoints after grid construction =        372357

 Iteration IRREP Converged      Max. Euclidean
                 roots          residual norm

   12       a        0        1.634937141347639D-05
 

 NOTE: Residual norms are larger than 1.00D-05 due to mgrid option!

 Eigenpairs written on logfile dipl_a   



 IRREP   Vector     Frequency            Euclidean residual norm

  a         1    0.000000000000000D+00    1.634937141347639D-05
 

                          -------------------
                           relaxed densities 
                          -------------------


    ----------------------------------------
     S+T+V CONTRIBUTIONS TO ENERGY GRADIENT 
    ----------------------------------------

 1e-integral 1st. derivatives will be neglected if expon. factor < 0.100000E-10


    -----------------------------------------------
     TWO ELECTRON CONTRIBUTIONS TO ENERGY GRADIENT 
    -----------------------------------------------

 setting up bound for integral derivative estimation

 increment for numerical differentiation : 0.00050000

 biggest AO integral is expected to be    21.668154127
 biggest cartesian 1st derivative AO integral is expected to be    83.347447328

 biggest 1-particle AO density matrix element is expected to be    3.2069601890

 core memory to be involved in 2e-gradient :
   symmetry shell pair data              :         1
   two particle density+dens. estimates  :      8556
   derivative integrals                  :      8498
   derivative integral bound             :     21780
   totally                               :     30276


 setting up bound for integral derivative estimation

 increment for numerical differentiation : 0.00050000

 biggest AO integral is expected to be    21.668154127
 biggest cartesian 1st derivative AO integral is expected to be    83.347447328

 2e-integral 1st. derivatives will be neglected if expon. factor < 0.100000E-06
 outer boundary for 2e-integral derivative neglection is 0.162055E-08

 Integrated ground state density     :   161.9999977726117    


          ------------------------------------------------
           cartesian gradient of the energy (hartree/bohr)
          ------------------------------------------------

  ATOM      1 o           2 c           3 c           4 c           5 c 
dE/dx  0.1541453D-02 -0.2188925D-02  0.1188517D-03 -0.5779277D-03 -0.2098470D-02
dE/dy -0.2473128D-03 -0.1804245D-02  0.2101755D-02 -0.2893064D-02  0.1086183D-02
dE/dz  0.1582324D-03 -0.5637939D-03  0.5536612D-03 -0.7183997D-03  0.6886073D-03

  ATOM      6 c           7 c           8 s           9 c          10 n 
dE/dx  0.2973557D-02 -0.2947580D-02  0.1266628D-02 -0.2726019D-02  0.2643541D-02
dE/dy  0.1865457D-02 -0.1810365D-03  0.1413946D-02 -0.2460265D-02  0.1649968D-02
dE/dz -0.6164304D-03  0.3990383D-03  0.2230734D-03 -0.2357578D-03  0.1114749D-03

  ATOM     11 c          12 s          13 n          14 c          15 c 
dE/dx  0.2004220D-03 -0.6652960D-03  0.3358990D-02 -0.2135527D-02  0.9541632D-03
dE/dy -0.1400516D-02  0.2748491D-03  0.8113883D-03 -0.3510344D-03  0.1586667D-02
dE/dz -0.2075302D-03  0.2063610D-03  0.5595669D-04  0.1556017D-03  0.1585145D-02

  ATOM     16 h          17 h          18 o          19 br         20 h 
dE/dx -0.6595292D-03  0.6449595D-03 -0.8877996D-03  0.1631877D-03 -0.4526082D-03
dE/dy  0.5774518D-04 -0.5159752D-03 -0.4182801D-03  0.1569516D-03 -0.1837464D-02
dE/dz -0.7430367D-03 -0.1000445D-02 -0.8005502D-04 -0.4948490D-04  0.1037609D-03

  ATOM     21 h 
dE/dx  0.1461620D-02
dE/dy  0.1090800D-02
dE/dz -0.2598791D-04
 
 resulting FORCE  (fx,fy,fz) = (-.123D-04,-.135D-04,-.845D-08)
 resulting MOMENT (mx,my,mz) = (-.347D-05,0.545D-05,0.596D-04)


 **********************************************************************
  |maximum component of gradient| : 0.33589897E-02  (atom 13 n )       
   gradient norm                  : 0.10731005E-01
 **********************************************************************

 exx =      -0.003039 eyy =      -0.001865 ezz =       0.000452
 eyz =       0.000987 exz =      -0.002218 exy =      -0.000660


 <getgrd> : data group $grad  is missing 

   ***  cartesian gradients written onto <gradient>  ***
 
 
 
 ==============================================================================
                           electrostatic moments
 ==============================================================================

 reference point for electrostatic moments:    0.00000   0.00000   0.00000

 
              nuc           gs,e       ->  gs,tot          excit     ->  total
 ------------------------------------------------------------------------------
                          charge      
 ------------------------------------------------------------------------------
         161.000000    -162.000000      -1.000000       0.000000      -1.000000
 
 ------------------------------------------------------------------------------
                       dipole moment  
 ------------------------------------------------------------------------------
   x    -632.667458     637.717701       5.050243      -1.254793       3.795450
   y     777.121718    -783.285150      -6.163431       1.274955      -4.888476
   z       0.779007      -0.789503      -0.010496       0.004404      -0.006092
 
   | dipole moment | =     6.1889 a.u. =    15.7307 debye 
 
 ------------------------------------------------------------------------------
                     quadrupole moment
 ------------------------------------------------------------------------------
  xx    7671.069982   -7845.673572    -174.603591       2.098625    -172.504965
  yy    5800.781572   -5937.396737    -136.615165      13.610033    -123.005131
  zz       5.707834     -98.524796     -92.816962       0.200755     -92.616207
  xy   -4802.061293    4836.753212      34.691919     -12.168481      22.523438
  xz      -6.121464       6.161785       0.040321      -0.029615       0.010707
  yz      10.021084     -10.102573      -0.081489       0.029438      -0.052051
 
     1/3  trace=    -129.375434
     anisotropy=      79.999321
 
 ==============================================================================
 


    ------------------------------------------------------------------------
         total  cpu-time :  5 minutes and 48 seconds
         total wall-time :  5 minutes and 48 seconds
    ------------------------------------------------------------------------

   ****  egrad : all done  ****


    2018-02-09 13:32:55.560 

$dipole from egrad
  x     3.79544951412925    y    -4.88847612197230    z    -0.00609232337819    a.u.
   | dipole | =   15.7307725748  debye
/work/bdnguye2/luc_project/7_brluc/ex_geo_opt/save/numforce/KraftWerk/p014
