 operating system is UNIX !

 ridft (missouri) : TURBOMOLE V7.2 ( 21454 ) 4 Oct 2017 at 12:48:15
 Copyright (C) 2017 TURBOMOLE GmbH, Karlsruhe


    2018-02-09 13:32:55.599 



                                  r i d f t

                        DFT program with RI approximation 
                                for coulomb part 




                                                 
                                 References:     
                                                 
          TURBOMOLE:                             
              R. Ahlrichs, M. Baer, M. Haeser, H. Horn, and
              C. Koelmel
              Electronic structure calculations on workstation
              computers: the program system TURBOMOLE
              Chem. Phys. Lett. 162: 165 (1989)
          Density Functional:                              
              O. Treutler and R. Ahlrichs                      
              Efficient Molecular Numerical Integration Schemes
              J. Chem. Phys. 102: 346 (1995)                   
          Parallel Version:                                
              Performance of parallel TURBOMOLE for Density    
              Functional Calculations                          
              M. v. Arnim and R. Ahlrichs                      
              J. Comp. Chem. 19: 1746 (1998)                   
          RI-J Method:                                     
              Auxiliary Basis Sets to approximate Coulomb      
              Potentials                                       
              Chem. Phys. Lett. 240: 283 (1995)                
              K. Eichkorn, O. Treutler, H. Oehm, M. Haeser     
              and R. Ahlrichs                                  
              Chem. Phys. Lett. 242: 652 (1995)                
                                                           
              Auxiliary Basis Sets for Main Row Atoms and their
              Use to approximate Coulomb Potentials            
              K. Eichkorn, F. Weigend, O. Treutler and         
              R. Ahlrichs                                      
              Theo. Chem. Acc. 97: 119 (1997)                   
                                                           
              Accurate Coulomb-fitting basis sets for H to Rn 
              F. Weigend                                        
              Phys. Chem. Chem. Phys. 8: 1057 (2006)            
                                                           
          Multipole accelerated RI-J (MARI-J):             
              Fast evaluation of the Coulomb potential for     
              electron densities using multipole accelerated   
              resolution of identity approximation             
              M. Sierka, A. Hogekamp and R. Ahlrichs           
              J. Chem. Phys. 118: 9136 (2003)                  
          RI-JK Method:                                     
              A fully direct RI-HF algorithm: Implementation,
              optimised auxiliary basis sets, demonstration of
              accuracy and efficiency                         
              F. Weigend                                      
              Phys. Chem. Chem. Phys. 4: 4285 (2002)           
          Two-component HF and DFT with spin-orbit coupling:  
              Self-consistent treatment of spin-orbit         
              interactions with efficient Hartree-Fock and    
              density functional methods                      
              M. K. Armbruster, F. Weigend, C. van Wüllen and 
              W. Klopper                                      
              Phys. Chem. Chem. Phys. 10: 1748 (2008)         
          Relativistic all-electron 2c calculations           
              An efficient implementation of two-component    
              relativistic exact-decoupling methods for large 
              molecules                                       
              D. Peng, N. Middendorf, F. Weigend, M. Reiher   
              J. Chem. Phys. 138, 184105 (2013)               
                                         




              +--------------------------------------------------+
              |      general information about current run       |
              +--------------------------------------------------+

 
 PBE0 hybrid functional
 exchange:    3/4 (LDA+PBE) + 1/4 HF
 correlation: LDA (PW) + PBE
 A Hybrid-DFT calculation using the RI-J approximation will be carried out.
 Allocatable memory for RI due to $ricore (MB):                  5000


              +--------------------------------------------------+
              | Atomic coordinate, charge and isotop information |
              +--------------------------------------------------+

                    atomic coordinates            atom    charge  isotop
        -12.81034095    6.80638670    0.00682544    o      8.000     0
        -10.87195537    5.50118580    0.00282539    c      6.000     0
         -8.33003697    6.66578228    0.01066620    c      6.000     0
         -6.09904799    5.18665417    0.00298297    c      6.000     0
         -6.19605527    2.53362482   -0.00177240    c      6.000     0
         -8.59782549    1.36715441   -0.01365975    c      6.000     0
        -10.80426769    2.77395352   -0.00372920    c      6.000     0
         -3.01494757    6.21925160    0.00635831    s     16.000     0
         -2.04404141    3.03489944    0.00174261    c      6.000     0
         -3.85504381    1.35952939   -0.01125196    n      7.000     0
          0.62457975    2.55107212    0.00001337    c      6.000     0
          1.62511006   -0.65068446   -0.01414471    s     16.000     0
          2.36808172    4.30776848    0.00533282    n      7.000     0
          4.78192667    3.37772826    0.00321827    c      6.000     0
          4.84978992    0.44020905   -0.00885961    c      6.000     0
          5.88435584   -0.23087720    1.67802183    h      1.000     0
          5.88653636   -0.22352369   -1.69600429    h      1.000     0
          6.72711163    4.59320501    0.01206070    o      8.000     0
         -8.16274479   10.16706329    0.01997932    br    35.000     0
         -8.67223705   -0.70197229   -0.01642921    h      1.000     0
        -12.64437485    1.84040408   -0.00918144    h      1.000     0
 
       center of nuclear mass  :   -4.07485428    5.04279099    0.00439755
       center of nuclear charge:   -3.92966062    4.82664424    0.00373492

              +--------------------------------------------------+
              |               basis set information              |
              +--------------------------------------------------+

              we will work with the 1s 3p 5d 7f 9g ... basis set
              ...i.e. with spherical basis functions...

   type   atoms  prim   cont   basis
   ---------------------------------------------------------------------------
    o        2     24     14   def2-SV(P)   [3s2p1d|7s4p1d]
    c       10     24     14   def2-SV(P)   [3s2p1d|7s4p1d]
    s        2     36     18   def2-SV(P)   [4s3p1d|10s7p1d]
    n        2     24     14   def2-SV(P)   [3s2p1d|7s4p1d]
    h        4      4      2   def2-SV(P)   [2s|4s]
    br       1     74     32   def2-SV(P)   [5s4p3d|14s10p6d]
   ---------------------------------------------------------------------------
   total:   21    498    272
   ---------------------------------------------------------------------------

   total number of primitive shells          :   88
   total number of contracted shells         :  120
   total number of cartesian basis functions :  291
   total number of SCF-basis functions       :  272


 integral neglect threshold       :  0.11E-10
 integral storage threshold THIZE :  0.10E-04
 integral storage threshold THIME :         5

 RI-J AUXILIARY BASIS SET information:

              we will work with the 1s 3p 5d 7f 9g ... basis set
              ...i.e. with spherical basis functions...

   type   atoms  prim   cont   basis
   ---------------------------------------------------------------------------
    o        2     70     49   def2-SV(P)   [6s4p3d1f1g|12s5p4d2f1g]
    c       10     70     49   def2-SV(P)   [6s4p3d1f1g|12s5p4d2f1g]
    s        2     77     51   def2-SV(P)   [8s4p3d1f1g|14s5p5d2f1g]
    n        2     70     49   def2-SV(P)   [6s4p3d1f1g|12s5p4d2f1g]
    h        4     16     11   def2-SV(P)   [3s1p1d|5s2p1d]
    br       1     89     58   def2-SV(P)   [8s4p3d2f1g|19s5p5d3f1g]
   ---------------------------------------------------------------------------
   total:   21   1287    890
   ---------------------------------------------------------------------------

   total number of primitive shells          :  140
   total number of contracted shells         :  282
   total number of cartesian basis functions : 1101
   total number of SCF-basis functions       :  890


 symmetry group of the molecule :   c1 

 the group has the following generators :
   c1(z)

    1 symmetry operations found

 there are 1 real representations :   a   

 maximum number of shells which are related by symmetry :  1


    mo occupation :
   irrep   mo's   occupied
    a      272       81
 
 number of basis functions   :                    272
 number of occupied orbitals :                     81
 
  
           ------------------
           density functional
           ------------------
 PBE0 hybrid functional
 exchange:    3/4 (LDA+PBE) + 1/4 HF
 correlation: LDA (PW) + PBE

 iterations will be done with small grid
  
 spherical integration : Lebedev's spherical grid
 spherical gridsize    :                     5
    i.e. gridpoints    :                   590
 value for diffuse not defined
 radial integration    : Chebyshev 2nd kind (scaling 3)
 radial gridsize       :                     8
 integration cells     :                    21
 partition function    : becke
 partition sharpness   :                     3
  

 biggest AO integral is expected to be    21.668154127
  
           ------------------------
               RI-J - INFORMATION
           ------------------------
 Contributions to RI integral batches: 
  neglected integral batches:                  2258
  direct contribution:                            0
  memory contribution:                  5002
 Memory core needed for (P|Q) and Cholesky      7 MByte
 Memory core minimum needed except of (P|Q)     1 MByte
 Total minimum memory core needed (sum)         7 MByte
  
 ****************************************
 Memory allocated for RI-J   249 MByte
 ****************************************
                                            

          ------------------------
          nuclear repulsion energy  :   1711.02152761    
          ------------------------


         -----------------
         -S,T+V- integrals
         -----------------

 1e-integrals will be neglected if expon. factor < 0.114844E-11
 
   Difference densities algorithm switched on.
   The maximal number of linear combinations of
   difference densities is                    20 .

 DIIS switched on: error vector is FDS-SDF
 Max. Iterations for DIIS is     :   4
 DIIS matrix (see manual) 
    Scaling factor of diagonals  :  1.200
    threshold for scaling factor :  0.000

 scf convergence criterion : increment of total energy < .1000000D-06
                  and increment of one-electron energy < .1000000D-03

  MOs are in ASCII format !


 automatic virtual orbital shift switched on 
      shift if e(lumo)-e(homo) < 0.10000000    


 reading orbital data $scfmo  from file mos
 orbital characterization : scfconv=7

 dump of DSCF restart information has been disabled !


 Starting SCF iterations

          Overall gridpoints after grid construction =        122129

 ITERATION  ENERGY          1e-ENERGY        2e-ENERGY     NORM[dD(SAO)]  TOL
   1  -4011.7250709876    -8982.8885998     3260.1420012    0.000D+00 0.115D-10
                            Exc = -172.726768627     Coul =  3488.52811928    
                            exK = -55.6593494883    
                              N = 162.00000449    
                            current damping = 0.700
 
          max. resid. norm for Fia-block=  4.768D-03 for orbital      1a         
          max. resid. fock norm         =  1.270D-02 for orbital    199a         

 ITERATION  ENERGY          1e-ENERGY        2e-ENERGY     NORM[dD(SAO)]  TOL
   2  -4011.7251404185    -8982.8972793     3260.1506112    0.329D-01 0.726D-11
                            Exc = -172.728151060      Eck =  3432.87876229    
                              N = 162.00000457    
                            current damping = 0.650
 
          Norm of current diis error: 0.91427E-02
          max. resid. norm for Fia-block=  1.964D-03 for orbital      1a         
          max. resid. fock norm         =  4.545D-03 for orbital      1a         

 ITERATION  ENERGY          1e-ENERGY        2e-ENERGY     NORM[dD(SAO)]  TOL
   3  -4011.7251527768    -8982.9092754     3260.1625951    0.746D-02 0.560D-11
                            Exc = -172.727282590      Eck =  3432.88987765    
                              N = 162.00000463    
                            current damping = 0.500
 
          Norm of current diis error: 0.63249E-02
          max. resid. norm for Fia-block=  7.736D-04 for orbital      1a         
          max. resid. fock norm         =  1.790D-03 for orbital      1a         

 ITERATION  ENERGY          1e-ENERGY        2e-ENERGY     NORM[dD(SAO)]  TOL
   4  -4011.7251590769    -8982.8973664     3260.1506797    0.247D-02 0.518D-11
                            Exc = -172.727819735      Eck =  3432.87849941    
                              N = 162.00000463    
                            current damping = 0.550
 
          Norm of current diis error: 0.20949E-02
          max. resid. norm for Fia-block=  2.579D-04 for orbital      1a         
          max. resid. fock norm         =  6.000D-04 for orbital    196a         

 ITERATION  ENERGY          1e-ENERGY        2e-ENERGY     NORM[dD(SAO)]  TOL
   5  -4011.7251596733    -8982.9030856     3260.1563983    0.176D-02 0.499D-11
                            Exc = -172.727681363      Eck =  3432.88407964    
                              N = 162.00000465    
                            current damping = 0.600
 
          Norm of current diis error: 0.13182E-02
          max. resid. norm for Fia-block=  9.152D-05 for orbital      1a         
          max. resid. fock norm         =  2.209D-04 for orbital    196a         
          mo-orthogonalization: Cholesky decomposition

 ITERATION  ENERGY          1e-ENERGY        2e-ENERGY     NORM[dD(SAO)]  TOL
   6  -4011.7251602371    -8982.9024812     3260.1557934    0.473D-03 0.484D-11
                            Exc = -172.727757930      Eck =  3432.88355129    
                              N = 162.00000466    
                            current damping = 0.650
 
          Norm of current diis error: 0.33044E-03
          max. resid. norm for Fia-block=  3.431D-05 for orbital      1a         
          max. resid. fock norm         =  8.158D-05 for orbital    196a         

 ITERATION  ENERGY          1e-ENERGY        2e-ENERGY     NORM[dD(SAO)]  TOL
   7  -4011.7251602542    -8982.9020008     3260.1553129    0.195D-03 0.475D-11
                            Exc = -172.727749177      Eck =  3432.88306207    
                              N = 162.00000466    
                            current damping = 0.500
 
          Norm of current diis error: 0.18809E-03
          max. resid. norm for Fia-block=  1.382D-05 for orbital     79a         
          max. resid. fock norm         =  3.177D-05 for orbital    196a         

 ENERGY CONVERGED !

          Overall gridpoints after grid construction =        372379

 ITERATION  ENERGY          1e-ENERGY        2e-ENERGY     NORM[dD(SAO)]  TOL
   8  -4011.7251560620    -8982.9017959     3260.1551122    0.595D-04 0.465D-11
                            Exc = -172.727744545      Eck =  3432.88285673    
                              N = 161.99999762    
                            current damping = 0.350
 
          Norm of current diis error: 0.10489E-03
          max. resid. norm for Fia-block=  9.673D-06 for orbital     76a         
          max. resid. fock norm         =  1.492D-05 for orbital    266a         

 End of SCF iterations

   convergence criteria satisfied after     8 iterations


                  ------------------------------------------ 
                 |  total energy      =  -4011.72515606196  |
                  ------------------------------------------ 
                 :  kinetic energy    =   4002.30950692728  :
                 :  potential energy  =  -8014.03466298924  :
                 :  virial theorem    =      1.99765296755  :
                 :  wavefunction norm =      1.00000000000  :
                  .......................................... 


 <geterg> : there is no data group $energy 


 orbitals $scfmo  will be written to file mos

    irrep                 77a         78a         79a         80a         81a   
 eigenvalues H         -0.16867    -0.16302    -0.12856    -0.11939    -0.07339
            eV          -4.5898     -4.4360     -3.4983     -3.2487     -1.9970
 occupation              2.0000      2.0000      2.0000      2.0000      2.0000 

    irrep                 82a         83a         84a         85a         86a   
 eigenvalues H          0.01739     0.10839     0.11950     0.12908     0.13604
            eV           0.4731      2.9495      3.2518      3.5125      3.7019
 
 
 
 
 ==============================================================================
                           electrostatic moments
 ==============================================================================

 reference point for electrostatic moments:    0.00000   0.00000   0.00000

 
              nuc           elec       ->  total
 ------------------------------------------------------------------------------
                          charge      
 ------------------------------------------------------------------------------
         161.000000    -162.000000      -1.000000
 
 ------------------------------------------------------------------------------
                       dipole moment  
 ------------------------------------------------------------------------------
   x    -632.675360     637.745431       5.070071
   y     777.089722    -783.231078      -6.141355
   z       0.601323      -0.610960      -0.009637
 
   | dipole moment | =     7.9638 a.u. =    20.2419 debye 
 
 ------------------------------------------------------------------------------
                     quadrupole moment
 ------------------------------------------------------------------------------
  xx    7671.010622   -7845.510316    -174.499693
  yy    5799.185832   -5935.708357    -136.522525
  zz       5.715540     -98.526478     -92.810938
  xy   -4801.393538    4836.243513      34.849975
  xz      -5.892892       5.913162       0.020271
  yz       9.229796      -9.312345      -0.082549
 
     1/3  trace=    -134.611052
     anisotropy=      93.040821
 
 ==============================================================================
 


    ------------------------------------------------------------------------
         total  cpu-time :  1 minutes and  2 seconds
         total wall-time :  1 minutes and  2 seconds
    ------------------------------------------------------------------------

   ****  ridft : all done  ****


    2018-02-09 13:33:57.608 


 egrad (missouri) : TURBOMOLE V7.2 ( 21454 ) 4 Oct 2017 at 12:24:43
 Copyright (C) 2017 TURBOMOLE GmbH, Karlsruhe


    2018-02-09 13:33:57.627 




                               e g r a d

                             TURBOMOLE GmbH


             integral direct evaluation of excited state
                     and polarizability gradients
                 and first-order nonadiabatic couplings



          references (see also programs escf, dscf and ridft) 

          review 
          F. Furche and D. Rappoport,  
          "Density functional methods for excited states: 
          equilibrium structure and electronic spectra",
          ch. III of "Computational Photochemistry", ed. by 
          M. Olivucci, vol. 16 of "Theoretical and Computational 
          Chemistry", Elsevier, Amsterdam, 2005.

          nonorthonormal Krylov space methods 
          F. Furche, B. T. Krull, B. D. Nguyen, J. Kwon, 
          J. Chem. Phys. 144 (2016), 174105.

          RI-J method 
          D. Rappoport and F. Furche, 
          J. Chem. Phys. 122 (2005), 064105.

          Lagrangian method, implementation, benchmarks 
          F. Furche and R. Ahlrichs,
          J. Chem. Phys. 117 (2002), 7433;
          J. Chem. Phys. 121 (2004), 12772 (E).

          Polarizability derivatives, Raman intensities 
          D. Rappoport and F. Furche, 
          J. Chem. Phys. 126 (2007), 201104.

          First-order nonadiabatic couplings 
          R. Send and F. Furche, 
          J. Chem. Phys. 132 (2010), 044107.
                                     




              +--------------------------------------------------+
              | Atomic coordinate, charge and isotop information |
              +--------------------------------------------------+

                    atomic coordinates            atom    charge  isotop
        -12.81034095    6.80638670    0.00682544    o      8.000     0
        -10.87195537    5.50118580    0.00282539    c      6.000     0
         -8.33003697    6.66578228    0.01066620    c      6.000     0
         -6.09904799    5.18665417    0.00298297    c      6.000     0
         -6.19605527    2.53362482   -0.00177240    c      6.000     0
         -8.59782549    1.36715441   -0.01365975    c      6.000     0
        -10.80426769    2.77395352   -0.00372920    c      6.000     0
         -3.01494757    6.21925160    0.00635831    s     16.000     0
         -2.04404141    3.03489944    0.00174261    c      6.000     0
         -3.85504381    1.35952939   -0.01125196    n      7.000     0
          0.62457975    2.55107212    0.00001337    c      6.000     0
          1.62511006   -0.65068446   -0.01414471    s     16.000     0
          2.36808172    4.30776848    0.00533282    n      7.000     0
          4.78192667    3.37772826    0.00321827    c      6.000     0
          4.84978992    0.44020905   -0.00885961    c      6.000     0
          5.88435584   -0.23087720    1.67802183    h      1.000     0
          5.88653636   -0.22352369   -1.69600429    h      1.000     0
          6.72711163    4.59320501    0.01206070    o      8.000     0
         -8.16274479   10.16706329    0.01997932    br    35.000     0
         -8.67223705   -0.70197229   -0.01642921    h      1.000     0
        -12.64437485    1.84040408   -0.00918144    h      1.000     0
 
       center of nuclear mass  :   -4.07485428    5.04279099    0.00439755
       center of nuclear charge:   -3.92966062    4.82664424    0.00373492

              +--------------------------------------------------+
              |               basis set information              |
              +--------------------------------------------------+

              we will work with the 1s 3p 5d 7f 9g ... basis set
              ...i.e. with spherical basis functions...

   type   atoms  prim   cont   basis
   ---------------------------------------------------------------------------
    o        2     24     14   def2-SV(P)   [3s2p1d|7s4p1d]
    c       10     24     14   def2-SV(P)   [3s2p1d|7s4p1d]
    s        2     36     18   def2-SV(P)   [4s3p1d|10s7p1d]
    n        2     24     14   def2-SV(P)   [3s2p1d|7s4p1d]
    h        4      4      2   def2-SV(P)   [2s|4s]
    br       1     74     32   def2-SV(P)   [5s4p3d|14s10p6d]
   ---------------------------------------------------------------------------
   total:   21    498    272
   ---------------------------------------------------------------------------

   total number of primitive shells          :   88
   total number of contracted shells         :  120
   total number of cartesian basis functions :  291
   total number of SCF-basis functions       :  272


 residuum convergence criterium   :  0.10E-04


 integral neglect threshold       :  0.11E-10
 integral storage threshold THIZE :  0.10E-04
 integral storage threshold THIME :         5

 
             FOUND RI-J FLAG !
 
  
 AUXILIARY BASIS SET information:

              we will work with the 1s 3p 5d 7f 9g ... basis set
              ...i.e. with spherical basis functions...

   type   atoms  prim   cont   basis
   ---------------------------------------------------------------------------
    o        2     70     49   def2-SV(P)   [6s4p3d1f1g|12s5p4d2f1g]
    c       10     70     49   def2-SV(P)   [6s4p3d1f1g|12s5p4d2f1g]
    s        2     77     51   def2-SV(P)   [8s4p3d1f1g|14s5p5d2f1g]
    n        2     70     49   def2-SV(P)   [6s4p3d1f1g|12s5p4d2f1g]
    h        4     16     11   def2-SV(P)   [3s1p1d|5s2p1d]
    br       1     89     58   def2-SV(P)   [8s4p3d2f1g|19s5p5d3f1g]
   ---------------------------------------------------------------------------
   total:   21   1287    890
   ---------------------------------------------------------------------------

   total number of primitive shells          :  140
   total number of contracted shells         :  282
   total number of cartesian basis functions : 1101
   total number of SCF-basis functions       :  890

 RPA SINGLET-EXCITATION-CALCULATION 
 
             FOUND DFT-FLAG !
 

 symmetry group of the molecule :   c1 

 the group has the following generators :
   c1(z)

    1 symmetry operations found

 there are 1 real representations :   a   

 maximum number of shells which are related by symmetry :  1

 IRREP of excited state :   a   
 

 determining totally symmetric integral contributions 
    - equivalent to irreducible tensor elements - 
 which can be formed within each triple of representations :

             representation triple      contributions

              a     a     a               1

    mo occupation :
   irrep   mo's   occupied
    a      272       81
 
 number of basis functions   :                    272
 number of occupied orbitals :                     81
 
  
           ------------------
           density functional
           ------------------
 PBE0 hybrid functional
 exchange:    3/4 (LDA+PBE) + 1/4 HF
 correlation: LDA (PW) + PBE

 iterations will be done with small grid
  
 spherical integration : Lebedev's spherical grid
 spherical gridsize    :                     5
    i.e. gridpoints    :                   590
 value for diffuse not defined
 radial integration    : Chebyshev 2nd kind (scaling 3)
 radial gridsize       :                     8
 integration cells     :                    21
 partition function    : becke
 partition sharpness   :                     3
  
  
           ----------------------
               RI - INFORMATION
           ----------------------

 biggest AO integral is expected to be    21.668154127

 Threshold for integral neglect (rithr2):   0.11E-10
 Threshold for integral neglect (rithr1):   0.11E-10

 Contributions to RI integral batches: 
  neglected integral batches:                  2114
  direct contribution:                            0
  memory contribution:                  5146
 Core memory available (ricore)            5000 MiB
 Core memory needed for (P|Q) and Cholesky 7 MiB
 Core memory used for integrals            250 MiB
  
 ****************************************
 Memory allocated for RIDFT 257 MiB
 ****************************************
                                            
  MOs are in ASCII format !


 reading orbital data $scfmo  from file mos
 orbital characterization : scfconv=7
 preparing numerical integration ....
          Overall gridpoints after grid construction =        122129

 Calculating ground state density on molecular grid

 Integral of ground state density: N =   162.0000046625660    



 number of non-frozen orbitals          :   272
 number of non-frozen occupied orbitals :    81



                        -------------------
                         excitation vector 
                        -------------------


 dimension of super-tensorspace: 2

          IRREP   tensor space dimension   number of roots

           a             15471                   1

 maximum number of Davidson iterations set to   25


 machine precision: 2.22D-16


 logfile sing_a    will be constructed


                       Nonorthonormal Krylov Space Iteration


 total number of roots to be determined:   1


 maximum core memory set to  5000 MB,
 corresponding to     3796 vectors in CAO basis


 maximum number of simultaneously treated vectors (including degeneracy):        2


 Iteration IRREP Converged      Max. Euclidean
                 roots          residual norm

    1       a        0        2.982729316225631D-02
 
    2       a        0        1.605489748393901D-02
 
    3       a        0        1.240240623288249D-01
 
    4       a        0        3.773885285853377D-02
 
    5       a        0        1.694328646911232D-02
 
    6       a        0        6.547805155160984D-03
 
    7       a        0        2.739867161195613D-03
 
    8       a        0        1.281576908503414D-03
 
    9       a        0        5.849930264770944D-04
 
   10       a        0        2.636978767193293D-04
 
   11       a        0        8.940932004463578D-05
 
   12       a        0        4.852689867851929D-05
 
   13       a        0        1.619013280275613D-05
 
   14       a        1        7.420353323290699D-06
 

 converged!


 Switching to fine grid

 preparing numerical integration ....
          Overall gridpoints after grid construction =        372379

 Calculating ground state density on molecular grid

 Integral of ground state density: N =   161.9999976182523    



 Iteration IRREP Converged      Max. Euclidean
                 roots          residual norm

   15       a        1        9.836679835655698D-06
 

 converged!

 Eigenpairs written on logfile sing_a   



 IRREP   Vector     Eigenvalue           Euclidean residual norm

  a         1    8.302217571374004D-02    9.836679835655698D-06
 




                    Selection rules for point group c1  


 Subduction with respect to c1  :

    Polar vector representation: a                           

    Axial vector representation: a                           

    Symmetric second rank tensor representation: a                           




                            Ground state


 Total energy:                           -4011.725156062000    

 Charge:

               elec          nuc         total

          -162.000000   161.000000    -1.000000


 Electric dipole moment:

               elec          nuc         total   

    x      637.745431  -632.675360     5.070071    Norm:              7.963791
    y     -783.231078   777.089722    -6.141355
    z       -0.610960     0.601323    -0.009637    Norm / debye:     20.242090


 Electric quadrupole moment:

               elec          nuc         total   

   xx    -7845.510316  7671.010622  -174.499693
   yy    -5935.708357  5799.185832  -136.522525    1/3*trace:      -134.611052
   zz      -98.526478     5.715540   -92.810938
   xy     4836.243513 -4801.393538    34.849975
   xz        5.913162    -5.892892     0.020271    Anisotropy:       93.040821
   yz       -9.312345     9.229796    -0.082549



 ==============================================================================

                              I R R E P   a   

 ==============================================================================


 Excitation is electric dipole allowed

 Excitation is magnetic dipole allowed

 Excitation is electric quadrupole allowed




                         1 singlet a excitation


 Total energy:                           -4011.642133886287    

 Excitation energy:                      0.8302217571374004E-01

 Excitation energy / eV:                  2.259149314241933    

 Excitation energy / nm:                  548.8094267380098    

 Excitation energy / cm^(-1):             18221.26135468361    


 Oscillator strength:

    velocity representation:             0.3073876740514497    

    length representation:               0.3585640502203344    

    mixed representation:                0.3319851632309266    


 Rotatory strength:

    velocity representation:             0.2344599195866726E-05

    velocity rep. / 10^(-40)erg*cm^3:    0.1514724005952112    

    length representation:               0.3552123036455362E-05

    length rep. / 10^(-40)erg*cm^3:      0.2294842566226100    


 Dominant contributions:

      occ. orbital   energy / eV   virt. orbital     energy / eV   |coeff.|^2*100
       81 a              -2.00          82 a               0.47       91.8
 

 Change of electron number:

             0.000000


 Electric transition dipole moment (velocity rep.):

    x       -2.316153        Norm:                  2.356632
    y        0.434916
    z       -0.000310        Norm / debye:          5.990007


 Electric transition dipole moment (length rep.):

    x       -2.498662        Norm:                  2.545259
    y        0.484800
    z        0.000607        Norm / debye:          6.469451


 Magnetic transition dipole moment / i:

    x       -0.000001        Norm:                  0.001058
    y        0.000002
    z        0.001058        Norm / Bohr mag.:      0.289866


 Electric quadrupole transition moment:

   xx       18.733478
   yy        4.467276        1/3*trace:             7.696966
   zz       -0.109856
   xy      -11.260276
   xz       -0.006778        Anisotropy:           25.887345
   yz        0.005921
 

 Excited state no.    1 chosen for optimization


                       ----------------------
                        CPKS right-hand side 
                       ----------------------


          IRREP   tensor space dimension   number of roots

           a             15471                   1

                          ----------------
                           CPKS equations 
                          ----------------


 logfile dipl_a    will be constructed

 Switching to coarse grid

 preparing numerical integration ....
          Overall gridpoints after grid construction =        122129


                       Nonorthonormal Krylov Space Iteration


 total number of roots to be determined:   1


 maximum core memory set to  5000 MB,
 corresponding to     7544 vectors in CAO basis


 maximum number of simultaneously treated vectors (including degeneracy):        1


 Iteration IRREP Converged      Max. Euclidean
                 roots          residual norm

    1       a        0        1.088991619578353D-01
 
    2       a        0        4.882458355462261D-02
 
    3       a        0        2.242726391062944D-02
 
    4       a        0        9.482164027513925D-03
 
    5       a        0        3.557205365425786D-03
 
    6       a        0        1.246084750533807D-03
 
    7       a        0        4.785452772781886D-04
 
    8       a        0        1.652174088308005D-04
 
    9       a        0        8.241329656598070D-05
 
   10       a        0        1.919394474155567D-05
 
   11       a        1        8.158550309811618D-06
 

 converged!


 Switching to fine grid

 preparing numerical integration ....
          Overall gridpoints after grid construction =        372379

 Iteration IRREP Converged      Max. Euclidean
                 roots          residual norm

   12       a        0        1.633235812797190D-05
 

 NOTE: Residual norms are larger than 1.00D-05 due to mgrid option!

 Eigenpairs written on logfile dipl_a   



 IRREP   Vector     Frequency            Euclidean residual norm

  a         1    0.000000000000000D+00    1.633235812797190D-05
 

                          -------------------
                           relaxed densities 
                          -------------------


    ----------------------------------------
     S+T+V CONTRIBUTIONS TO ENERGY GRADIENT 
    ----------------------------------------

 1e-integral 1st. derivatives will be neglected if expon. factor < 0.100000E-10


    -----------------------------------------------
     TWO ELECTRON CONTRIBUTIONS TO ENERGY GRADIENT 
    -----------------------------------------------

 setting up bound for integral derivative estimation

 increment for numerical differentiation : 0.00050000

 biggest AO integral is expected to be    21.668154127
 biggest cartesian 1st derivative AO integral is expected to be    83.347447328

 biggest 1-particle AO density matrix element is expected to be    3.2069195557

 core memory to be involved in 2e-gradient :
   symmetry shell pair data              :         1
   two particle density+dens. estimates  :      8556
   derivative integrals                  :      8498
   derivative integral bound             :     21780
   totally                               :     30276


 setting up bound for integral derivative estimation

 increment for numerical differentiation : 0.00050000

 biggest AO integral is expected to be    21.668154127
 biggest cartesian 1st derivative AO integral is expected to be    83.347447328

 2e-integral 1st. derivatives will be neglected if expon. factor < 0.100000E-06
 outer boundary for 2e-integral derivative neglection is 0.162059E-08

 Integrated ground state density     :   161.9999976182511    


          ------------------------------------------------
           cartesian gradient of the energy (hartree/bohr)
          ------------------------------------------------

  ATOM      1 o           2 c           3 c           4 c           5 c 
dE/dx  0.1812463D-02 -0.3112622D-02  0.1399664D-02 -0.1161846D-02  0.1136876D-02
dE/dy -0.3811994D-03 -0.3050378D-02  0.2173755D-02 -0.3304594D-02  0.4099006D-02
dE/dz  0.9842151D-04 -0.4589238D-03  0.3677844D-03 -0.4300780D-03  0.9905020D-03

  ATOM      6 c           7 c           8 s           9 c          10 n 
dE/dx -0.7834650D-05 -0.2136251D-02  0.7966296D-03 -0.1767393D-02  0.2261208D-02
dE/dy -0.1887606D-02  0.2591924D-02 -0.2847088D-03 -0.2538614D-03  0.5820002D-03
dE/dz -0.8949872D-03  0.5253556D-03 -0.2200379D-03  0.5259910D-03 -0.5864644D-03

  ATOM     11 c          12 s          13 n          14 c          15 c 
dE/dx -0.1591713D-02  0.1167450D-02 -0.1228136D-02  0.6746551D-02 -0.1907009D-02
dE/dy -0.1971866D-03  0.1062726D-02 -0.8873717D-03  0.4406684D-02 -0.1194999D-02
dE/dz  0.8695427D-04 -0.3858192D-04 -0.9656054D-04  0.8357517D-04 -0.4161029D-03

  ATOM     16 h          17 h          18 o          19 br         20 h 
dE/dx  0.5950390D-03  0.4216309D-03 -0.4729473D-02  0.6312374D-04 -0.1302586D-03
dE/dy -0.1185638D-04 -0.8675182D-04 -0.3370672D-02 -0.1472051D-03 -0.4676271D-03
dE/dz  0.7910639D-03 -0.4884129D-03  0.3628407D-04 -0.2718516D-04  0.1832736D-03

  ATOM     21 h 
dE/dx  0.1359474D-02
dE/dy  0.5956852D-03
dE/dz -0.3196504D-04
 
 resulting FORCE  (fx,fy,fz) = (-.124D-04,-.142D-04,-.944D-07)
 resulting MOMENT (mx,my,mz) = (0.640D-05,0.649D-05,0.613D-04)


 **********************************************************************
  |maximum component of gradient| : 0.67465511E-02  (atom 14 c )       
   gradient norm                  : 0.14217351E-01
 **********************************************************************

 exx =      -0.006753 eyy =      -0.014971 ezz =       0.002174
 eyz =       0.000096 exz =       0.000227 exy =      -0.008726


 <getgrd> : data group $grad  is missing 

   ***  cartesian gradients written onto <gradient>  ***
 
 
 
 ==============================================================================
                           electrostatic moments
 ==============================================================================

 reference point for electrostatic moments:    0.00000   0.00000   0.00000

 
              nuc           gs,e       ->  gs,tot          excit     ->  total
 ------------------------------------------------------------------------------
                          charge      
 ------------------------------------------------------------------------------
         161.000000    -162.000000      -1.000000       0.000000      -1.000000
 
 ------------------------------------------------------------------------------
                       dipole moment  
 ------------------------------------------------------------------------------
   x    -632.675360     637.745431       5.070071      -1.254151       3.815920
   y     777.089722    -783.231078      -6.141355       1.267203      -4.874152
   z       0.601323      -0.610960      -0.009637       0.003664      -0.005973
 
   | dipole moment | =     6.1902 a.u. =    15.7339 debye 
 
 ------------------------------------------------------------------------------
                     quadrupole moment
 ------------------------------------------------------------------------------
  xx    7671.010622   -7845.510316    -174.499693       2.139639    -172.360055
  yy    5799.185832   -5935.708357    -136.522525      13.534783    -122.987743
  zz       5.715540     -98.526478     -92.810938       0.199100     -92.611838
  xy   -4801.393538    4836.243513      34.849975     -12.131579      22.718396
  xz      -5.892892       5.913162       0.020271      -0.027795      -0.007525
  yz       9.229796      -9.312345      -0.082549       0.025210      -0.057339
 
     1/3  trace=    -129.319878
     anisotropy=      80.052708
 
 ==============================================================================
 


    ------------------------------------------------------------------------
         total  cpu-time :  6 minutes and  3 seconds
         total wall-time :  6 minutes and  3 seconds
    ------------------------------------------------------------------------

   ****  egrad : all done  ****


    2018-02-09 13:40:01.056 

$dipole from egrad
  x     3.81592043433966    y    -4.87415232913213    z    -0.00597318943852    a.u.
   | dipole | =   15.7340521457  debye
/work/bdnguye2/luc_project/7_brluc/ex_geo_opt/save/numforce/KraftWerk/p015
