 operating system is UNIX !

 ridft (missouri) : TURBOMOLE V7.2 ( 21454 ) 4 Oct 2017 at 12:48:15
 Copyright (C) 2017 TURBOMOLE GmbH, Karlsruhe


    2018-02-09 14:14:23.075 



                                  r i d f t

                        DFT program with RI approximation 
                                for coulomb part 




                                                 
                                 References:     
                                                 
          TURBOMOLE:                             
              R. Ahlrichs, M. Baer, M. Haeser, H. Horn, and
              C. Koelmel
              Electronic structure calculations on workstation
              computers: the program system TURBOMOLE
              Chem. Phys. Lett. 162: 165 (1989)
          Density Functional:                              
              O. Treutler and R. Ahlrichs                      
              Efficient Molecular Numerical Integration Schemes
              J. Chem. Phys. 102: 346 (1995)                   
          Parallel Version:                                
              Performance of parallel TURBOMOLE for Density    
              Functional Calculations                          
              M. v. Arnim and R. Ahlrichs                      
              J. Comp. Chem. 19: 1746 (1998)                   
          RI-J Method:                                     
              Auxiliary Basis Sets to approximate Coulomb      
              Potentials                                       
              Chem. Phys. Lett. 240: 283 (1995)                
              K. Eichkorn, O. Treutler, H. Oehm, M. Haeser     
              and R. Ahlrichs                                  
              Chem. Phys. Lett. 242: 652 (1995)                
                                                           
              Auxiliary Basis Sets for Main Row Atoms and their
              Use to approximate Coulomb Potentials            
              K. Eichkorn, F. Weigend, O. Treutler and         
              R. Ahlrichs                                      
              Theo. Chem. Acc. 97: 119 (1997)                   
                                                           
              Accurate Coulomb-fitting basis sets for H to Rn 
              F. Weigend                                        
              Phys. Chem. Chem. Phys. 8: 1057 (2006)            
                                                           
          Multipole accelerated RI-J (MARI-J):             
              Fast evaluation of the Coulomb potential for     
              electron densities using multipole accelerated   
              resolution of identity approximation             
              M. Sierka, A. Hogekamp and R. Ahlrichs           
              J. Chem. Phys. 118: 9136 (2003)                  
          RI-JK Method:                                     
              A fully direct RI-HF algorithm: Implementation,
              optimised auxiliary basis sets, demonstration of
              accuracy and efficiency                         
              F. Weigend                                      
              Phys. Chem. Chem. Phys. 4: 4285 (2002)           
          Two-component HF and DFT with spin-orbit coupling:  
              Self-consistent treatment of spin-orbit         
              interactions with efficient Hartree-Fock and    
              density functional methods                      
              M. K. Armbruster, F. Weigend, C. van Wüllen and 
              W. Klopper                                      
              Phys. Chem. Chem. Phys. 10: 1748 (2008)         
          Relativistic all-electron 2c calculations           
              An efficient implementation of two-component    
              relativistic exact-decoupling methods for large 
              molecules                                       
              D. Peng, N. Middendorf, F. Weigend, M. Reiher   
              J. Chem. Phys. 138, 184105 (2013)               
                                         




              +--------------------------------------------------+
              |      general information about current run       |
              +--------------------------------------------------+

 
 PBE0 hybrid functional
 exchange:    3/4 (LDA+PBE) + 1/4 HF
 correlation: LDA (PW) + PBE
 A Hybrid-DFT calculation using the RI-J approximation will be carried out.
 Allocatable memory for RI due to $ricore (MB):                  5000


              +--------------------------------------------------+
              | Atomic coordinate, charge and isotop information |
              +--------------------------------------------------+

                    atomic coordinates            atom    charge  isotop
        -12.80978948    6.80514092    0.00313550    o      8.000     0
        -10.87073022    5.50627896    0.00569380    c      6.000     0
         -8.33158310    6.65900821    0.00664101    c      6.000     0
         -6.09327757    5.19269870    0.00220361    c      6.000     0
         -6.19930109    2.53086160   -0.00171446    c      6.000     0
         -8.59601863    1.36649973   -0.01302572    c      6.000     0
        -10.80077755    2.77417760   -0.00720334    c      6.000     0
         -3.01930400    6.21816115    0.01310312    s     16.000     0
         -2.03809599    3.03102940   -0.00436949    c      6.000     0
         -3.85664659    1.36166627   -0.00715596    n      7.000     0
          0.62535536    2.54896454    0.00043663    c      6.000     0
          1.62493870   -0.65347050   -0.01548640    s     16.000     0
          2.36958287    4.31282635    0.00880005    n      7.000     0
          4.77620710    3.37073631    0.00457995    c      6.000     0
          4.85501272    0.44410693   -0.00933571    c      6.000     0
          5.87942065   -0.23267528    1.68000172    h      1.000     0
          5.88473828   -0.22550358   -1.69648038    h      1.000     0
          6.73204683    4.59842781    0.00816282    o      8.000     0
         -8.16973673   10.16570161    0.02344655    br    35.000     0
         -8.66651749   -0.70047114   -0.02148708    h      1.000     0
        -12.64716089    1.84174576   -0.00918144    h      1.000     0
 
       center of nuclear mass  :   -4.07624528    5.04228959    0.00536313
       center of nuclear charge:   -3.93087448    4.82617312    0.00460051

              +--------------------------------------------------+
              |               basis set information              |
              +--------------------------------------------------+

              we will work with the 1s 3p 5d 7f 9g ... basis set
              ...i.e. with spherical basis functions...

   type   atoms  prim   cont   basis
   ---------------------------------------------------------------------------
    o        2     24     14   def2-SV(P)   [3s2p1d|7s4p1d]
    c       10     24     14   def2-SV(P)   [3s2p1d|7s4p1d]
    s        2     36     18   def2-SV(P)   [4s3p1d|10s7p1d]
    n        2     24     14   def2-SV(P)   [3s2p1d|7s4p1d]
    h        4      4      2   def2-SV(P)   [2s|4s]
    br       1     74     32   def2-SV(P)   [5s4p3d|14s10p6d]
   ---------------------------------------------------------------------------
   total:   21    498    272
   ---------------------------------------------------------------------------

   total number of primitive shells          :   88
   total number of contracted shells         :  120
   total number of cartesian basis functions :  291
   total number of SCF-basis functions       :  272


 integral neglect threshold       :  0.11E-10
 integral storage threshold THIZE :  0.10E-04
 integral storage threshold THIME :         5

 RI-J AUXILIARY BASIS SET information:

              we will work with the 1s 3p 5d 7f 9g ... basis set
              ...i.e. with spherical basis functions...

   type   atoms  prim   cont   basis
   ---------------------------------------------------------------------------
    o        2     70     49   def2-SV(P)   [6s4p3d1f1g|12s5p4d2f1g]
    c       10     70     49   def2-SV(P)   [6s4p3d1f1g|12s5p4d2f1g]
    s        2     77     51   def2-SV(P)   [8s4p3d1f1g|14s5p5d2f1g]
    n        2     70     49   def2-SV(P)   [6s4p3d1f1g|12s5p4d2f1g]
    h        4     16     11   def2-SV(P)   [3s1p1d|5s2p1d]
    br       1     89     58   def2-SV(P)   [8s4p3d2f1g|19s5p5d3f1g]
   ---------------------------------------------------------------------------
   total:   21   1287    890
   ---------------------------------------------------------------------------

   total number of primitive shells          :  140
   total number of contracted shells         :  282
   total number of cartesian basis functions : 1101
   total number of SCF-basis functions       :  890


 symmetry group of the molecule :   c1 

 the group has the following generators :
   c1(z)

    1 symmetry operations found

 there are 1 real representations :   a   

 maximum number of shells which are related by symmetry :  1


    mo occupation :
   irrep   mo's   occupied
    a      272       81
 
 number of basis functions   :                    272
 number of occupied orbitals :                     81
 
  
           ------------------
           density functional
           ------------------
 PBE0 hybrid functional
 exchange:    3/4 (LDA+PBE) + 1/4 HF
 correlation: LDA (PW) + PBE

 iterations will be done with small grid
  
 spherical integration : Lebedev's spherical grid
 spherical gridsize    :                     5
    i.e. gridpoints    :                   590
 value for diffuse not defined
 radial integration    : Chebyshev 2nd kind (scaling 3)
 radial gridsize       :                     8
 integration cells     :                    21
 partition function    : becke
 partition sharpness   :                     3
  

 biggest AO integral is expected to be    21.668154127
  
           ------------------------
               RI-J - INFORMATION
           ------------------------
 Contributions to RI integral batches: 
  neglected integral batches:                  2258
  direct contribution:                            0
  memory contribution:                  5002
 Memory core needed for (P|Q) and Cholesky      7 MByte
 Memory core minimum needed except of (P|Q)     1 MByte
 Total minimum memory core needed (sum)         7 MByte
  
 ****************************************
 Memory allocated for RI-J   249 MByte
 ****************************************
                                            

          ------------------------
          nuclear repulsion energy  :   1710.86886572    
          ------------------------


         -----------------
         -S,T+V- integrals
         -----------------

 1e-integrals will be neglected if expon. factor < 0.114844E-11
 
   Difference densities algorithm switched on.
   The maximal number of linear combinations of
   difference densities is                    20 .

 DIIS switched on: error vector is FDS-SDF
 Max. Iterations for DIIS is     :   4
 DIIS matrix (see manual) 
    Scaling factor of diagonals  :  1.200
    threshold for scaling factor :  0.000

 scf convergence criterion : increment of total energy < .1000000D-06
                  and increment of one-electron energy < .1000000D-03

  MOs are in ASCII format !


 automatic virtual orbital shift switched on 
      shift if e(lumo)-e(homo) < 0.10000000    


 reading orbital data $scfmo  from file mos
 orbital characterization : scfconv=7

 dump of DSCF restart information has been disabled !


 Starting SCF iterations

          Overall gridpoints after grid construction =        122130

 ITERATION  ENERGY          1e-ENERGY        2e-ENERGY     NORM[dD(SAO)]  TOL
   1  -4011.7252511208    -8982.5990105     3260.0048937    0.000D+00 0.115D-10
                            Exc = -172.725035988     Coul =  3488.38847467    
                            exK = -55.6585450173    
                              N = 162.00000506    
                            current damping = 0.700
 
          max. resid. norm for Fia-block=  6.247D-03 for orbital      1a         
          max. resid. fock norm         =  9.686D-03 for orbital      1a         

 ITERATION  ENERGY          1e-ENERGY        2e-ENERGY     NORM[dD(SAO)]  TOL
   2  -4011.7253131437    -8982.5941004     3259.9999216    0.243D-01 0.726D-11
                            Exc = -172.724310117      Eck =  3432.72423169    
                              N = 162.00000494    
                            current damping = 0.650
 
          Norm of current diis error: 0.10201E-01
          max. resid. norm for Fia-block=  2.573D-03 for orbital      1a         
          max. resid. fock norm         =  3.988D-03 for orbital      1a         

 ITERATION  ENERGY          1e-ENERGY        2e-ENERGY     NORM[dD(SAO)]  TOL
   3  -4011.7253237040    -8982.5892494     3259.9950600    0.783D-02 0.567D-11
                            Exc = -172.724682954      Eck =  3432.71974295    
                              N = 162.00000492    
                            current damping = 0.500
 
          Norm of current diis error: 0.62780E-02
          max. resid. norm for Fia-block=  1.014D-03 for orbital      1a         
          max. resid. fock norm         =  1.571D-03 for orbital      1a         

 ITERATION  ENERGY          1e-ENERGY        2e-ENERGY     NORM[dD(SAO)]  TOL
   4  -4011.7253289606    -8982.5912614     3259.9970668    0.247D-02 0.524D-11
                            Exc = -172.724480593      Eck =  3432.72154735    
                              N = 162.00000488    
                            current damping = 0.550
 
          Norm of current diis error: 0.23509E-02
          max. resid. norm for Fia-block=  3.380D-04 for orbital      1a         
          max. resid. fock norm         =  5.238D-04 for orbital      1a         

 ITERATION  ENERGY          1e-ENERGY        2e-ENERGY     NORM[dD(SAO)]  TOL
   5  -4011.7253298038    -8982.5916645     3259.9974690    0.103D-02 0.499D-11
                            Exc = -172.724420519      Eck =  3432.72188951    
                              N = 162.00000487    
                            current damping = 0.400
 
          Norm of current diis error: 0.74503E-03
          max. resid. norm for Fia-block=  1.199D-04 for orbital      1a         
          max. resid. fock norm         =  1.859D-04 for orbital      1a         
          mo-orthogonalization: Cholesky decomposition

 ITERATION  ENERGY          1e-ENERGY        2e-ENERGY     NORM[dD(SAO)]  TOL
   6  -4011.7253301179    -8982.5897022     3259.9955064    0.435D-03 0.487D-11
                            Exc = -172.724508790      Eck =  3432.72001515    
                              N = 162.00000488    
                            current damping = 0.450
 
          Norm of current diis error: 0.39456E-03
          max. resid. norm for Fia-block=  3.426D-05 for orbital      1a         
          max. resid. fock norm         =  5.363D-05 for orbital    245a         

 ITERATION  ENERGY          1e-ENERGY        2e-ENERGY     NORM[dD(SAO)]  TOL
   7  -4011.7253301403    -8982.5906286     3259.9964327    0.145D-03 0.477D-11
                            Exc = -172.724461841      Eck =  3432.72089457    
                              N = 162.00000488    
                            current damping = 0.500
 
          Norm of current diis error: 0.12359E-03
          max. resid. norm for Fia-block=  1.258D-05 for orbital     80a         
          max. resid. fock norm         =  2.619D-05 for orbital     40a         

 ENERGY CONVERGED !

          Overall gridpoints after grid construction =        372384

 ITERATION  ENERGY          1e-ENERGY        2e-ENERGY     NORM[dD(SAO)]  TOL
   8  -4011.7253263160    -8982.5904570     3259.9962650    0.647D-04 0.471D-11
                            Exc = -172.724471141      Eck =  3432.72073613    
                              N = 161.99999770    
                            current damping = 0.550
 
          Norm of current diis error: 0.88919E-04
          max. resid. norm for Fia-block=  6.592D-06 for orbital     80a         
          max. resid. fock norm         =  9.578D-06 for orbital     40a         

 End of SCF iterations

   convergence criteria satisfied after     8 iterations


                  ------------------------------------------ 
                 |  total energy      =  -4011.72532631601  |
                  ------------------------------------------ 
                 :  kinetic energy    =   4002.28978444350  :
                 :  potential energy  =  -8014.01511075950  :
                 :  virial theorem    =      1.99764800900  :
                 :  wavefunction norm =      1.00000000000  :
                  .......................................... 


 <geterg> : there is no data group $energy 


 orbitals $scfmo  will be written to file mos

    irrep                 77a         78a         79a         80a         81a   
 eigenvalues H         -0.16855    -0.16296    -0.12853    -0.12030    -0.07422
            eV          -4.5865     -4.4345     -3.4976     -3.2736     -2.0195
 occupation              2.0000      2.0000      2.0000      2.0000      2.0000 

    irrep                 82a         83a         84a         85a         86a   
 eigenvalues H          0.01674     0.10820     0.11875     0.12780     0.13606
            eV           0.4556      2.9442      3.2314      3.4778      3.7024
 
 
 
 
 ==============================================================================
                           electrostatic moments
 ==============================================================================

 reference point for electrostatic moments:    0.00000   0.00000   0.00000

 
              nuc           elec       ->  total
 ------------------------------------------------------------------------------
                          charge      
 ------------------------------------------------------------------------------
         161.000000    -162.000000      -1.000000
 
 ------------------------------------------------------------------------------
                       dipole moment  
 ------------------------------------------------------------------------------
   x    -632.870791     637.888087       5.017296
   y     777.013873    -783.181769      -6.167897
   z       0.740683      -0.746273      -0.005590
 
   | dipole moment | =     7.9509 a.u. =    20.2091 debye 
 
 ------------------------------------------------------------------------------
                     quadrupole moment
 ------------------------------------------------------------------------------
  xx    7674.877389   -7849.318530    -174.441140
  yy    5798.273012   -5934.988697    -136.715685
  zz       5.730935     -98.538614     -92.807679
  xy   -4803.267150    4837.805662      34.538512
  xz      -6.753222       6.749729      -0.003494
  yz      10.730423     -10.782038      -0.051615
 
     1/3  trace=    -134.654835
     anisotropy=      92.662327
 
 ==============================================================================
 


    ------------------------------------------------------------------------
         total  cpu-time :  1 minutes and  7 seconds
         total wall-time :  1 minutes and  7 seconds
    ------------------------------------------------------------------------

   ****  ridft : all done  ****


    2018-02-09 14:15:30.493 


 egrad (missouri) : TURBOMOLE V7.2 ( 21454 ) 4 Oct 2017 at 12:24:43
 Copyright (C) 2017 TURBOMOLE GmbH, Karlsruhe


    2018-02-09 14:15:30.511 




                               e g r a d

                             TURBOMOLE GmbH


             integral direct evaluation of excited state
                     and polarizability gradients
                 and first-order nonadiabatic couplings



          references (see also programs escf, dscf and ridft) 

          review 
          F. Furche and D. Rappoport,  
          "Density functional methods for excited states: 
          equilibrium structure and electronic spectra",
          ch. III of "Computational Photochemistry", ed. by 
          M. Olivucci, vol. 16 of "Theoretical and Computational 
          Chemistry", Elsevier, Amsterdam, 2005.

          nonorthonormal Krylov space methods 
          F. Furche, B. T. Krull, B. D. Nguyen, J. Kwon, 
          J. Chem. Phys. 144 (2016), 174105.

          RI-J method 
          D. Rappoport and F. Furche, 
          J. Chem. Phys. 122 (2005), 064105.

          Lagrangian method, implementation, benchmarks 
          F. Furche and R. Ahlrichs,
          J. Chem. Phys. 117 (2002), 7433;
          J. Chem. Phys. 121 (2004), 12772 (E).

          Polarizability derivatives, Raman intensities 
          D. Rappoport and F. Furche, 
          J. Chem. Phys. 126 (2007), 201104.

          First-order nonadiabatic couplings 
          R. Send and F. Furche, 
          J. Chem. Phys. 132 (2010), 044107.
                                     




              +--------------------------------------------------+
              | Atomic coordinate, charge and isotop information |
              +--------------------------------------------------+

                    atomic coordinates            atom    charge  isotop
        -12.80978948    6.80514092    0.00313550    o      8.000     0
        -10.87073022    5.50627896    0.00569380    c      6.000     0
         -8.33158310    6.65900821    0.00664101    c      6.000     0
         -6.09327757    5.19269870    0.00220361    c      6.000     0
         -6.19930109    2.53086160   -0.00171446    c      6.000     0
         -8.59601863    1.36649973   -0.01302572    c      6.000     0
        -10.80077755    2.77417760   -0.00720334    c      6.000     0
         -3.01930400    6.21816115    0.01310312    s     16.000     0
         -2.03809599    3.03102940   -0.00436949    c      6.000     0
         -3.85664659    1.36166627   -0.00715596    n      7.000     0
          0.62535536    2.54896454    0.00043663    c      6.000     0
          1.62493870   -0.65347050   -0.01548640    s     16.000     0
          2.36958287    4.31282635    0.00880005    n      7.000     0
          4.77620710    3.37073631    0.00457995    c      6.000     0
          4.85501272    0.44410693   -0.00933571    c      6.000     0
          5.87942065   -0.23267528    1.68000172    h      1.000     0
          5.88473828   -0.22550358   -1.69648038    h      1.000     0
          6.73204683    4.59842781    0.00816282    o      8.000     0
         -8.16973673   10.16570161    0.02344655    br    35.000     0
         -8.66651749   -0.70047114   -0.02148708    h      1.000     0
        -12.64716089    1.84174576   -0.00918144    h      1.000     0
 
       center of nuclear mass  :   -4.07624528    5.04228959    0.00536313
       center of nuclear charge:   -3.93087448    4.82617312    0.00460051

              +--------------------------------------------------+
              |               basis set information              |
              +--------------------------------------------------+

              we will work with the 1s 3p 5d 7f 9g ... basis set
              ...i.e. with spherical basis functions...

   type   atoms  prim   cont   basis
   ---------------------------------------------------------------------------
    o        2     24     14   def2-SV(P)   [3s2p1d|7s4p1d]
    c       10     24     14   def2-SV(P)   [3s2p1d|7s4p1d]
    s        2     36     18   def2-SV(P)   [4s3p1d|10s7p1d]
    n        2     24     14   def2-SV(P)   [3s2p1d|7s4p1d]
    h        4      4      2   def2-SV(P)   [2s|4s]
    br       1     74     32   def2-SV(P)   [5s4p3d|14s10p6d]
   ---------------------------------------------------------------------------
   total:   21    498    272
   ---------------------------------------------------------------------------

   total number of primitive shells          :   88
   total number of contracted shells         :  120
   total number of cartesian basis functions :  291
   total number of SCF-basis functions       :  272


 residuum convergence criterium   :  0.10E-04


 integral neglect threshold       :  0.11E-10
 integral storage threshold THIZE :  0.10E-04
 integral storage threshold THIME :         5

 
             FOUND RI-J FLAG !
 
  
 AUXILIARY BASIS SET information:

              we will work with the 1s 3p 5d 7f 9g ... basis set
              ...i.e. with spherical basis functions...

   type   atoms  prim   cont   basis
   ---------------------------------------------------------------------------
    o        2     70     49   def2-SV(P)   [6s4p3d1f1g|12s5p4d2f1g]
    c       10     70     49   def2-SV(P)   [6s4p3d1f1g|12s5p4d2f1g]
    s        2     77     51   def2-SV(P)   [8s4p3d1f1g|14s5p5d2f1g]
    n        2     70     49   def2-SV(P)   [6s4p3d1f1g|12s5p4d2f1g]
    h        4     16     11   def2-SV(P)   [3s1p1d|5s2p1d]
    br       1     89     58   def2-SV(P)   [8s4p3d2f1g|19s5p5d3f1g]
   ---------------------------------------------------------------------------
   total:   21   1287    890
   ---------------------------------------------------------------------------

   total number of primitive shells          :  140
   total number of contracted shells         :  282
   total number of cartesian basis functions : 1101
   total number of SCF-basis functions       :  890

 RPA SINGLET-EXCITATION-CALCULATION 
 
             FOUND DFT-FLAG !
 

 symmetry group of the molecule :   c1 

 the group has the following generators :
   c1(z)

    1 symmetry operations found

 there are 1 real representations :   a   

 maximum number of shells which are related by symmetry :  1

 IRREP of excited state :   a   
 

 determining totally symmetric integral contributions 
    - equivalent to irreducible tensor elements - 
 which can be formed within each triple of representations :

             representation triple      contributions

              a     a     a               1

    mo occupation :
   irrep   mo's   occupied
    a      272       81
 
 number of basis functions   :                    272
 number of occupied orbitals :                     81
 
  
           ------------------
           density functional
           ------------------
 PBE0 hybrid functional
 exchange:    3/4 (LDA+PBE) + 1/4 HF
 correlation: LDA (PW) + PBE

 iterations will be done with small grid
  
 spherical integration : Lebedev's spherical grid
 spherical gridsize    :                     5
    i.e. gridpoints    :                   590
 value for diffuse not defined
 radial integration    : Chebyshev 2nd kind (scaling 3)
 radial gridsize       :                     8
 integration cells     :                    21
 partition function    : becke
 partition sharpness   :                     3
  
  
           ----------------------
               RI - INFORMATION
           ----------------------

 biggest AO integral is expected to be    21.668154127

 Threshold for integral neglect (rithr2):   0.11E-10
 Threshold for integral neglect (rithr1):   0.11E-10

 Contributions to RI integral batches: 
  neglected integral batches:                  2114
  direct contribution:                            0
  memory contribution:                  5146
 Core memory available (ricore)            5000 MiB
 Core memory needed for (P|Q) and Cholesky 7 MiB
 Core memory used for integrals            251 MiB
  
 ****************************************
 Memory allocated for RIDFT 257 MiB
 ****************************************
                                            
  MOs are in ASCII format !


 reading orbital data $scfmo  from file mos
 orbital characterization : scfconv=7
 preparing numerical integration ....
          Overall gridpoints after grid construction =        122130

 Calculating ground state density on molecular grid

 Integral of ground state density: N =   162.0000048813962    



 number of non-frozen orbitals          :   272
 number of non-frozen occupied orbitals :    81



                        -------------------
                         excitation vector 
                        -------------------


 dimension of super-tensorspace: 2

          IRREP   tensor space dimension   number of roots

           a             15471                   1

 maximum number of Davidson iterations set to   25


 machine precision: 2.22D-16


 logfile sing_a    will be constructed


                       Nonorthonormal Krylov Space Iteration


 total number of roots to be determined:   1


 maximum core memory set to  5000 MB,
 corresponding to     3796 vectors in CAO basis


 maximum number of simultaneously treated vectors (including degeneracy):        2


 Iteration IRREP Converged      Max. Euclidean
                 roots          residual norm

    1       a        0        3.102547280643721D-02
 
    2       a        0        9.107719735206610D-02
 
    3       a        0        4.093923492148480D-02
 
    4       a        0        1.752173472140282D-02
 
    5       a        0        6.550035780987949D-03
 
    6       a        0        2.911964144668748D-03
 
    7       a        0        1.411239370180509D-03
 
    8       a        0        6.100377946443867D-04
 
    9       a        0        2.700910597300165D-04
 
   10       a        0        1.026782402612896D-04
 
   11       a        0        5.738932138165298D-05
 
   12       a        0        1.648634864089339D-05
 
   13       a        1        7.128296205559234D-06
 

 converged!


 Switching to fine grid

 preparing numerical integration ....
          Overall gridpoints after grid construction =        372384

 Calculating ground state density on molecular grid

 Integral of ground state density: N =   161.9999977044509    



 Iteration IRREP Converged      Max. Euclidean
                 roots          residual norm

   14       a        1        9.674367759622992D-06
 

 converged!

 Eigenpairs written on logfile sing_a   



 IRREP   Vector     Eigenvalue           Euclidean residual norm

  a         1    8.317946178549269D-02    9.674367759622992D-06
 




                    Selection rules for point group c1  


 Subduction with respect to c1  :

    Polar vector representation: a                           

    Axial vector representation: a                           

    Symmetric second rank tensor representation: a                           




                            Ground state


 Total energy:                           -4011.725326316000    

 Charge:

               elec          nuc         total

          -162.000000   161.000000    -1.000000


 Electric dipole moment:

               elec          nuc         total   

    x      637.888087  -632.870791     5.017296    Norm:              7.950864
    y     -783.181769   777.013873    -6.167897
    z       -0.746273     0.740683    -0.005590    Norm / debye:     20.209233


 Electric quadrupole moment:

               elec          nuc         total   

   xx    -7849.318530  7674.877389  -174.441140
   yy    -5934.988697  5798.273012  -136.715685    1/3*trace:      -134.654835
   zz      -98.538614     5.730935   -92.807679
   xy     4837.805662 -4803.267150    34.538512
   xz        6.749729    -6.753222    -0.003494    Anisotropy:       92.662327
   yz      -10.782038    10.730423    -0.051615



 ==============================================================================

                              I R R E P   a   

 ==============================================================================


 Excitation is electric dipole allowed

 Excitation is magnetic dipole allowed

 Excitation is electric quadrupole allowed




                         1 singlet a excitation


 Total energy:                           -4011.642146854214    

 Excitation energy:                      0.8317946178549269E-01

 Excitation energy / eV:                  2.263429287852417    

 Excitation energy / nm:                  547.7716696160048    

 Excitation energy / cm^(-1):             18255.78165719577    


 Oscillator strength:

    velocity representation:             0.3044108372487229    

    length representation:               0.3553922661789051    

    mixed representation:                0.3289092185257835    


 Rotatory strength:

    velocity representation:             0.6912795869433095E-06

    velocity rep. / 10^(-40)erg*cm^3:    0.4465999079986084E-01

    length representation:               0.1037018925251390E-05

    length rep. / 10^(-40)erg*cm^3:      0.6699641727567276E-01


 Dominant contributions:

      occ. orbital   energy / eV   virt. orbital     energy / eV   |coeff.|^2*100
       81 a              -2.02          82 a               0.46       91.4
 

 Change of electron number:

             0.000000


 Electric transition dipole moment (velocity rep.):

    x       -2.303163        Norm:                  2.342975
    y        0.430085
    z       -0.000002        Norm / debye:          5.955293


 Electric transition dipole moment (length rep.):

    x       -2.485697        Norm:                  2.531579
    y        0.479796
    z        0.000207        Norm / debye:          6.434682


 Magnetic transition dipole moment / i:

    x        0.000000        Norm:                  0.001090
    y        0.000004
    z        0.001090        Norm / Bohr mag.:      0.298608


 Electric quadrupole transition moment:

   xx       18.634686
   yy        4.419359        1/3*trace:             7.648340
   zz       -0.109027
   xy      -11.202990
   xz       -0.002474        Anisotropy:           25.758014
   yz        0.003609
 

 Excited state no.    1 chosen for optimization


                       ----------------------
                        CPKS right-hand side 
                       ----------------------


          IRREP   tensor space dimension   number of roots

           a             15471                   1

                          ----------------
                           CPKS equations 
                          ----------------


 logfile dipl_a    will be constructed

 Switching to coarse grid

 preparing numerical integration ....
          Overall gridpoints after grid construction =        122130


                       Nonorthonormal Krylov Space Iteration


 total number of roots to be determined:   1


 maximum core memory set to  5000 MB,
 corresponding to     7544 vectors in CAO basis


 maximum number of simultaneously treated vectors (including degeneracy):        1


 Iteration IRREP Converged      Max. Euclidean
                 roots          residual norm

    1       a        0        1.088331672029372D-01
 
    2       a        0        4.837675482712799D-02
 
    3       a        0        2.231894202412169D-02
 
    4       a        0        9.449518114608299D-03
 
    5       a        0        3.569583764071569D-03
 
    6       a        0        1.243573913620340D-03
 
    7       a        0        4.792022688962822D-04
 
    8       a        0        1.649147979351878D-04
 
    9       a        0        8.246812411584428D-05
 
   10       a        0        1.893783796325395D-05
 
   11       a        1        8.004615240043612D-06
 

 converged!


 Switching to fine grid

 preparing numerical integration ....
          Overall gridpoints after grid construction =        372384

 Iteration IRREP Converged      Max. Euclidean
                 roots          residual norm

   12       a        0        1.629810103569260D-05
 

 NOTE: Residual norms are larger than 1.00D-05 due to mgrid option!

 Eigenpairs written on logfile dipl_a   



 IRREP   Vector     Frequency            Euclidean residual norm

  a         1    0.000000000000000D+00    1.629810103569260D-05
 

                          -------------------
                           relaxed densities 
                          -------------------


    ----------------------------------------
     S+T+V CONTRIBUTIONS TO ENERGY GRADIENT 
    ----------------------------------------

 1e-integral 1st. derivatives will be neglected if expon. factor < 0.100000E-10


    -----------------------------------------------
     TWO ELECTRON CONTRIBUTIONS TO ENERGY GRADIENT 
    -----------------------------------------------

 setting up bound for integral derivative estimation

 increment for numerical differentiation : 0.00050000

 biggest AO integral is expected to be    21.668154127
 biggest cartesian 1st derivative AO integral is expected to be    83.347447328

 biggest 1-particle AO density matrix element is expected to be    3.2069941934

 core memory to be involved in 2e-gradient :
   symmetry shell pair data              :         1
   two particle density+dens. estimates  :      8556
   derivative integrals                  :      8498
   derivative integral bound             :     21780
   totally                               :     30276


 setting up bound for integral derivative estimation

 increment for numerical differentiation : 0.00050000

 biggest AO integral is expected to be    21.668154127
 biggest cartesian 1st derivative AO integral is expected to be    83.347447328

 2e-integral 1st. derivatives will be neglected if expon. factor < 0.100000E-06
 outer boundary for 2e-integral derivative neglection is 0.162051E-08

 Integrated ground state density     :   161.9999977044493    


          ------------------------------------------------
           cartesian gradient of the energy (hartree/bohr)
          ------------------------------------------------

  ATOM      1 o           2 c           3 c           4 c           5 c 
dE/dx  0.3017049D-02 -0.3355230D-02 -0.2287970D-03  0.2008685D-02 -0.2993995D-02
dE/dy -0.1934597D-02  0.2237969D-02 -0.2085376D-02  0.2025405D-02  0.5250618D-04
dE/dz -0.3665510D-03  0.8866905D-03 -0.3419620D-03 -0.5336710D-03  0.7706976D-03

  ATOM      6 c           7 c           8 s           9 c          10 n 
dE/dx  0.1025014D-02  0.6467514D-03 -0.1881228D-02  0.1951865D-02  0.1809827D-02
dE/dy -0.1939007D-02  0.1888540D-02 -0.9398484D-03 -0.1097022D-02  0.1276321D-02
dE/dz -0.4094126D-03 -0.2377369D-03  0.3508136D-03 -0.6651077D-03  0.9391686D-04

  ATOM     11 c          12 s          13 n          14 c          15 c 
dE/dx -0.3130029D-02  0.4495430D-03  0.1422947D-03 -0.4130655D-02  0.4843719D-03
dE/dy -0.1474155D-02  0.1417230D-03  0.2806055D-02 -0.4912158D-02  0.4397682D-03
dE/dz  0.3109162D-03 -0.3767136D-05 -0.8070239D-04  0.3788613D-03 -0.7253556D-03

  ATOM     16 h          17 h          18 o          19 br         20 h 
dE/dx  0.2798717D-04 -0.1569078D-03  0.4564156D-02 -0.7655415D-04  0.1376047D-03
dE/dy -0.1357505D-03 -0.2515250D-03  0.3296867D-02  0.3455796D-03  0.3268278D-03
dE/dz  0.7141076D-03 -0.2745350D-03 -0.9451286D-04  0.7921150D-04  0.3492370D-04

  ATOM     21 h 
dE/dx -0.3224812D-03
dE/dy -0.8182745D-04
dE/dz  0.1131948D-03
 
 resulting FORCE  (fx,fy,fz) = (-.107D-04,-.137D-04,0.194D-07)
 resulting MOMENT (mx,my,mz) = (0.188D-05,0.134D-05,0.636D-04)


 **********************************************************************
  |maximum component of gradient| : 0.49121580E-02  (atom 14 c )       
   gradient norm                  : 0.13104565E-01
 **********************************************************************

 exx =       0.000191 eyy =       0.001351 ezz =       0.001686
 eyz =       0.000216 exz =       0.000252 exy =       0.001477


 <getgrd> : data group $grad  is missing 

   ***  cartesian gradients written onto <gradient>  ***
 
 
 
 ==============================================================================
                           electrostatic moments
 ==============================================================================

 reference point for electrostatic moments:    0.00000   0.00000   0.00000

 
              nuc           gs,e       ->  gs,tot          excit     ->  total
 ------------------------------------------------------------------------------
                          charge      
 ------------------------------------------------------------------------------
         161.000000    -162.000000      -1.000000       0.000000      -1.000000
 
 ------------------------------------------------------------------------------
                       dipole moment  
 ------------------------------------------------------------------------------
   x    -632.870791     637.888087       5.017296      -1.254600       3.762697
   y     777.013873    -783.181769      -6.167897       1.282666      -4.885230
   z       0.740683      -0.746273      -0.005590       0.003844      -0.001747
 
   | dipole moment | =     6.1663 a.u. =    15.6732 debye 
 
 ------------------------------------------------------------------------------
                     quadrupole moment
 ------------------------------------------------------------------------------
  xx    7674.877389   -7849.318530    -174.441140       2.088994    -172.352147
  yy    5798.273012   -5934.988697    -136.715685      13.714806    -123.000879
  zz       5.730935     -98.538614     -92.807679       0.201564     -92.606115
  xy   -4803.267150    4837.805662      34.538512     -12.247971      22.290541
  xz      -6.753222       6.749729      -0.003494      -0.029267      -0.032761
  yz      10.730423     -10.782038      -0.051615       0.028205      -0.023410
 
     1/3  trace=    -129.319714
     anisotropy=      79.687006
 
 ==============================================================================
 


    ------------------------------------------------------------------------
         total  cpu-time :  6 minutes and  6 seconds
         total wall-time :  6 minutes and  6 seconds
    ------------------------------------------------------------------------

   ****  egrad : all done  ****


    2018-02-09 14:21:36.349 

$dipole from egrad
  x     3.76269653130112    y    -4.88523008762854    z    -0.00174673467421    a.u.
   | dipole | =   15.6733114680  debye
/work/bdnguye2/luc_project/7_brluc/ex_geo_opt/save/numforce/KraftWerk/p021
