 operating system is UNIX !

 ridft (missouri) : TURBOMOLE V7.2 ( 21454 ) 4 Oct 2017 at 12:48:15
 Copyright (C) 2017 TURBOMOLE GmbH, Karlsruhe


    2018-02-09 15:33:11.981 



                                  r i d f t

                        DFT program with RI approximation 
                                for coulomb part 




                                                 
                                 References:     
                                                 
          TURBOMOLE:                             
              R. Ahlrichs, M. Baer, M. Haeser, H. Horn, and
              C. Koelmel
              Electronic structure calculations on workstation
              computers: the program system TURBOMOLE
              Chem. Phys. Lett. 162: 165 (1989)
          Density Functional:                              
              O. Treutler and R. Ahlrichs                      
              Efficient Molecular Numerical Integration Schemes
              J. Chem. Phys. 102: 346 (1995)                   
          Parallel Version:                                
              Performance of parallel TURBOMOLE for Density    
              Functional Calculations                          
              M. v. Arnim and R. Ahlrichs                      
              J. Comp. Chem. 19: 1746 (1998)                   
          RI-J Method:                                     
              Auxiliary Basis Sets to approximate Coulomb      
              Potentials                                       
              Chem. Phys. Lett. 240: 283 (1995)                
              K. Eichkorn, O. Treutler, H. Oehm, M. Haeser     
              and R. Ahlrichs                                  
              Chem. Phys. Lett. 242: 652 (1995)                
                                                           
              Auxiliary Basis Sets for Main Row Atoms and their
              Use to approximate Coulomb Potentials            
              K. Eichkorn, F. Weigend, O. Treutler and         
              R. Ahlrichs                                      
              Theo. Chem. Acc. 97: 119 (1997)                   
                                                           
              Accurate Coulomb-fitting basis sets for H to Rn 
              F. Weigend                                        
              Phys. Chem. Chem. Phys. 8: 1057 (2006)            
                                                           
          Multipole accelerated RI-J (MARI-J):             
              Fast evaluation of the Coulomb potential for     
              electron densities using multipole accelerated   
              resolution of identity approximation             
              M. Sierka, A. Hogekamp and R. Ahlrichs           
              J. Chem. Phys. 118: 9136 (2003)                  
          RI-JK Method:                                     
              A fully direct RI-HF algorithm: Implementation,
              optimised auxiliary basis sets, demonstration of
              accuracy and efficiency                         
              F. Weigend                                      
              Phys. Chem. Chem. Phys. 4: 4285 (2002)           
          Two-component HF and DFT with spin-orbit coupling:  
              Self-consistent treatment of spin-orbit         
              interactions with efficient Hartree-Fock and    
              density functional methods                      
              M. K. Armbruster, F. Weigend, C. van Wüllen and 
              W. Klopper                                      
              Phys. Chem. Chem. Phys. 10: 1748 (2008)         
          Relativistic all-electron 2c calculations           
              An efficient implementation of two-component    
              relativistic exact-decoupling methods for large 
              molecules                                       
              D. Peng, N. Middendorf, F. Weigend, M. Reiher   
              J. Chem. Phys. 138, 184105 (2013)               
                                         




              +--------------------------------------------------+
              |      general information about current run       |
              +--------------------------------------------------+

 
 PBE0 hybrid functional
 exchange:    3/4 (LDA+PBE) + 1/4 HF
 correlation: LDA (PW) + PBE
 A Hybrid-DFT calculation using the RI-J approximation will be carried out.
 Allocatable memory for RI due to $ricore (MB):                  5000


              +--------------------------------------------------+
              | Atomic coordinate, charge and isotop information |
              +--------------------------------------------------+

                    atomic coordinates            atom    charge  isotop
        -12.81010424    6.80269972    0.00546586    o      8.000     0
        -10.86497420    5.50209485    0.00008748    c      6.000     0
         -8.32810896    6.66177874    0.00684989    c      6.000     0
         -6.09318511    5.18796866    0.00143889    c      6.000     0
         -6.19226530    2.53018287   -0.00731995    c      6.000     0
         -8.59395576    1.36816289   -0.01418587    c      6.000     0
        -10.79890749    2.77198092   -0.00998939    c      6.000     0
         -3.01351872    6.21947897    0.00633638    s     16.000     0
         -2.03783474    3.03509848   -0.00415385    c      6.000     0
         -3.85599710    1.35887333   -0.01144667    n      7.000     0
          0.63062046    2.55374616   -0.00462732    c      6.000     0
          1.62229685   -0.65192437   -0.01513351    s     16.000     0
          2.37287767    4.31272070    0.00246699    n      7.000     0
          4.77808672    3.37652040    0.00107360    c      6.000     0
          4.85244248    0.44676092   -0.00989388    c      6.000     0
          5.88041174   -0.23129875    1.67475240    h      1.000     0
          5.88026947   -0.22433172   -1.69035012    h      1.000     0
          6.72859433    4.59404978    0.01240271    o      8.000     0
         -8.16857254   10.16378116    0.02420753    br    35.000     0
         -8.66908146   -0.70067367   -0.01517156    h      1.000     0
        -12.64870703    1.83497169   -0.01422097    h      1.000     0
 
       center of nuclear mass  :   -4.07477374    5.04199558    0.00389403
       center of nuclear charge:   -3.92943542    4.82591805    0.00308874

              +--------------------------------------------------+
              |               basis set information              |
              +--------------------------------------------------+

              we will work with the 1s 3p 5d 7f 9g ... basis set
              ...i.e. with spherical basis functions...

   type   atoms  prim   cont   basis
   ---------------------------------------------------------------------------
    o        2     24     14   def2-SV(P)   [3s2p1d|7s4p1d]
    c       10     24     14   def2-SV(P)   [3s2p1d|7s4p1d]
    s        2     36     18   def2-SV(P)   [4s3p1d|10s7p1d]
    n        2     24     14   def2-SV(P)   [3s2p1d|7s4p1d]
    h        4      4      2   def2-SV(P)   [2s|4s]
    br       1     74     32   def2-SV(P)   [5s4p3d|14s10p6d]
   ---------------------------------------------------------------------------
   total:   21    498    272
   ---------------------------------------------------------------------------

   total number of primitive shells          :   88
   total number of contracted shells         :  120
   total number of cartesian basis functions :  291
   total number of SCF-basis functions       :  272


 integral neglect threshold       :  0.11E-10
 integral storage threshold THIZE :  0.10E-04
 integral storage threshold THIME :         5

 RI-J AUXILIARY BASIS SET information:

              we will work with the 1s 3p 5d 7f 9g ... basis set
              ...i.e. with spherical basis functions...

   type   atoms  prim   cont   basis
   ---------------------------------------------------------------------------
    o        2     70     49   def2-SV(P)   [6s4p3d1f1g|12s5p4d2f1g]
    c       10     70     49   def2-SV(P)   [6s4p3d1f1g|12s5p4d2f1g]
    s        2     77     51   def2-SV(P)   [8s4p3d1f1g|14s5p5d2f1g]
    n        2     70     49   def2-SV(P)   [6s4p3d1f1g|12s5p4d2f1g]
    h        4     16     11   def2-SV(P)   [3s1p1d|5s2p1d]
    br       1     89     58   def2-SV(P)   [8s4p3d2f1g|19s5p5d3f1g]
   ---------------------------------------------------------------------------
   total:   21   1287    890
   ---------------------------------------------------------------------------

   total number of primitive shells          :  140
   total number of contracted shells         :  282
   total number of cartesian basis functions : 1101
   total number of SCF-basis functions       :  890


 symmetry group of the molecule :   c1 

 the group has the following generators :
   c1(z)

    1 symmetry operations found

 there are 1 real representations :   a   

 maximum number of shells which are related by symmetry :  1


    mo occupation :
   irrep   mo's   occupied
    a      272       81
 
 number of basis functions   :                    272
 number of occupied orbitals :                     81
 
  
           ------------------
           density functional
           ------------------
 PBE0 hybrid functional
 exchange:    3/4 (LDA+PBE) + 1/4 HF
 correlation: LDA (PW) + PBE

 iterations will be done with small grid
  
 spherical integration : Lebedev's spherical grid
 spherical gridsize    :                     5
    i.e. gridpoints    :                   590
 value for diffuse not defined
 radial integration    : Chebyshev 2nd kind (scaling 3)
 radial gridsize       :                     8
 integration cells     :                    21
 partition function    : becke
 partition sharpness   :                     3
  

 biggest AO integral is expected to be    21.668154127
  
           ------------------------
               RI-J - INFORMATION
           ------------------------
 Contributions to RI integral batches: 
  neglected integral batches:                  2257
  direct contribution:                            0
  memory contribution:                  5003
 Memory core needed for (P|Q) and Cholesky      7 MByte
 Memory core minimum needed except of (P|Q)     1 MByte
 Total minimum memory core needed (sum)         7 MByte
  
 ****************************************
 Memory allocated for RI-J   249 MByte
 ****************************************
                                            

          ------------------------
          nuclear repulsion energy  :   1711.14054921    
          ------------------------


         -----------------
         -S,T+V- integrals
         -----------------

 1e-integrals will be neglected if expon. factor < 0.114844E-11
 
   Difference densities algorithm switched on.
   The maximal number of linear combinations of
   difference densities is                    20 .

 DIIS switched on: error vector is FDS-SDF
 Max. Iterations for DIIS is     :   4
 DIIS matrix (see manual) 
    Scaling factor of diagonals  :  1.200
    threshold for scaling factor :  0.000

 scf convergence criterion : increment of total energy < .1000000D-06
                  and increment of one-electron energy < .1000000D-03

  MOs are in ASCII format !


 automatic virtual orbital shift switched on 
      shift if e(lumo)-e(homo) < 0.10000000    


 reading orbital data $scfmo  from file mos
 orbital characterization : scfconv=7

 dump of DSCF restart information has been disabled !


 Starting SCF iterations

          Overall gridpoints after grid construction =        122127

 ITERATION  ENERGY          1e-ENERGY        2e-ENERGY     NORM[dD(SAO)]  TOL
   1  -4011.7254855421    -8983.1270744     3260.2610396    0.000D+00 0.115D-10
                            Exc = -172.727091623     Coul =  3488.64750395    
                            exK = -55.6593727068    
                              N = 162.00000526    
                            current damping = 0.700
 
          max. resid. norm for Fia-block=  1.431D-03 for orbital      1a         
          max. resid. fock norm         =  3.745D-03 for orbital    199a         

 ITERATION  ENERGY          1e-ENERGY        2e-ENERGY     NORM[dD(SAO)]  TOL
   2  -4011.7255006590    -8983.1343092     3260.2682593    0.109D-01 0.726D-11
                            Exc = -172.727214295      Eck =  3432.99547363    
                              N = 162.00000528    
                            current damping = 0.650
 
          Norm of current diis error: 0.38338E-02
          max. resid. norm for Fia-block=  5.893D-04 for orbital      1a         
          max. resid. fock norm         =  1.504D-03 for orbital    269a         

 ITERATION  ENERGY          1e-ENERGY        2e-ENERGY     NORM[dD(SAO)]  TOL
   3  -4011.7255035626    -8983.1286139     3260.2625612    0.276D-02 0.560D-11
                            Exc = -172.727316227      Eck =  3432.98987739    
                              N = 162.00000527    
                            current damping = 0.600
 
          Norm of current diis error: 0.22310E-02
          max. resid. norm for Fia-block=  2.322D-04 for orbital      1a         
          max. resid. fock norm         =  5.905D-04 for orbital    269a         

 ITERATION  ENERGY          1e-ENERGY        2e-ENERGY     NORM[dD(SAO)]  TOL
   4  -4011.7255044091    -8983.1343504     3260.2682968    0.142D-02 0.526D-11
                            Exc = -172.727102411      Eck =  3432.99539922    
                              N = 162.00000529    
                            current damping = 0.650
 
          Norm of current diis error: 0.11768E-02
          max. resid. norm for Fia-block=  8.839D-05 for orbital     80a         
          max. resid. fock norm         =  2.241D-04 for orbital    269a         

 ITERATION  ENERGY          1e-ENERGY        2e-ENERGY     NORM[dD(SAO)]  TOL
   5  -4011.7255046714    -8983.1322356     3260.2661817    0.600D-03 0.502D-11
                            Exc = -172.727233495      Eck =  3432.99341521    
                              N = 162.00000528    
                            current damping = 0.700
 
          Norm of current diis error: 0.44936E-03
          max. resid. norm for Fia-block=  3.439D-05 for orbital     59a         
          max. resid. fock norm         =  8.898D-05 for orbital    269a         
          mo-orthogonalization: Cholesky decomposition

 ENERGY CONVERGED !

          Overall gridpoints after grid construction =        372356

 ITERATION  ENERGY          1e-ENERGY        2e-ENERGY     NORM[dD(SAO)]  TOL
   6  -4011.7255009873    -8983.1322916     3260.2662414    0.248D-03 0.489D-11
                            Exc = -172.727214253      Eck =  3432.99345561    
                              N = 161.99999768    
                            current damping = 0.750
 
          Norm of current diis error: 0.18864E-03
          max. resid. norm for Fia-block=  1.526D-05 for orbital     59a         
          max. resid. fock norm         =  3.861D-05 for orbital    199a         

 End of SCF iterations

   convergence criteria satisfied after     6 iterations


                  ------------------------------------------ 
                 |  total energy      =  -4011.72550098732  |
                  ------------------------------------------ 
                 :  kinetic energy    =   4002.30419252212  :
                 :  potential energy  =  -8014.02969350944  :
                 :  virial theorem    =      1.99765155705  :
                 :  wavefunction norm =      1.00000000000  :
                  .......................................... 


 <geterg> : there is no data group $energy 


 orbitals $scfmo  will be written to file mos

    irrep                 77a         78a         79a         80a         81a   
 eigenvalues H         -0.16880    -0.16298    -0.12884    -0.11965    -0.07381
            eV          -4.5933     -4.4349     -3.5060     -3.2558     -2.0084
 occupation              2.0000      2.0000      2.0000      2.0000      2.0000 

    irrep                 82a         83a         84a         85a         86a   
 eigenvalues H          0.01718     0.10835     0.11911     0.12795     0.13610
            eV           0.4675      2.9483      3.2411      3.4816      3.7036
 
 
 
 
 ==============================================================================
                           electrostatic moments
 ==============================================================================

 reference point for electrostatic moments:    0.00000   0.00000   0.00000

 
              nuc           elec       ->  total
 ------------------------------------------------------------------------------
                          charge      
 ------------------------------------------------------------------------------
         161.000000    -162.000000      -1.000000
 
 ------------------------------------------------------------------------------
                       dipole moment  
 ------------------------------------------------------------------------------
   x    -632.639103     637.680206       5.041103
   y     776.972805    -783.120812      -6.148006
   z       0.497287      -0.505543      -0.008256
 
   | dipole moment | =     7.9505 a.u. =    20.2082 debye 
 
 ------------------------------------------------------------------------------
                     quadrupole moment
 ------------------------------------------------------------------------------
  xx    7671.234067   -7845.775586    -174.541519
  yy    5796.590325   -5933.119208    -136.528882
  zz       5.693006     -98.504543     -92.811537
  xy   -4800.368631    4835.051201      34.682570
  xz      -5.915822       5.919025       0.003203
  yz       9.871484      -9.946790      -0.075306
 
     1/3  trace=    -134.627313
     anisotropy=      92.879693
 
 ==============================================================================
 


    ------------------------------------------------------------------------
         total  cpu-time :  52.86 seconds
         total wall-time :  52.88 seconds
    ------------------------------------------------------------------------

   ****  ridft : all done  ****


    2018-02-09 15:34:04.851 


 egrad (missouri) : TURBOMOLE V7.2 ( 21454 ) 4 Oct 2017 at 12:24:43
 Copyright (C) 2017 TURBOMOLE GmbH, Karlsruhe


    2018-02-09 15:34:04.861 




                               e g r a d

                             TURBOMOLE GmbH


             integral direct evaluation of excited state
                     and polarizability gradients
                 and first-order nonadiabatic couplings



          references (see also programs escf, dscf and ridft) 

          review 
          F. Furche and D. Rappoport,  
          "Density functional methods for excited states: 
          equilibrium structure and electronic spectra",
          ch. III of "Computational Photochemistry", ed. by 
          M. Olivucci, vol. 16 of "Theoretical and Computational 
          Chemistry", Elsevier, Amsterdam, 2005.

          nonorthonormal Krylov space methods 
          F. Furche, B. T. Krull, B. D. Nguyen, J. Kwon, 
          J. Chem. Phys. 144 (2016), 174105.

          RI-J method 
          D. Rappoport and F. Furche, 
          J. Chem. Phys. 122 (2005), 064105.

          Lagrangian method, implementation, benchmarks 
          F. Furche and R. Ahlrichs,
          J. Chem. Phys. 117 (2002), 7433;
          J. Chem. Phys. 121 (2004), 12772 (E).

          Polarizability derivatives, Raman intensities 
          D. Rappoport and F. Furche, 
          J. Chem. Phys. 126 (2007), 201104.

          First-order nonadiabatic couplings 
          R. Send and F. Furche, 
          J. Chem. Phys. 132 (2010), 044107.
                                     




              +--------------------------------------------------+
              | Atomic coordinate, charge and isotop information |
              +--------------------------------------------------+

                    atomic coordinates            atom    charge  isotop
        -12.81010424    6.80269972    0.00546586    o      8.000     0
        -10.86497420    5.50209485    0.00008748    c      6.000     0
         -8.32810896    6.66177874    0.00684989    c      6.000     0
         -6.09318511    5.18796866    0.00143889    c      6.000     0
         -6.19226530    2.53018287   -0.00731995    c      6.000     0
         -8.59395576    1.36816289   -0.01418587    c      6.000     0
        -10.79890749    2.77198092   -0.00998939    c      6.000     0
         -3.01351872    6.21947897    0.00633638    s     16.000     0
         -2.03783474    3.03509848   -0.00415385    c      6.000     0
         -3.85599710    1.35887333   -0.01144667    n      7.000     0
          0.63062046    2.55374616   -0.00462732    c      6.000     0
          1.62229685   -0.65192437   -0.01513351    s     16.000     0
          2.37287767    4.31272070    0.00246699    n      7.000     0
          4.77808672    3.37652040    0.00107360    c      6.000     0
          4.85244248    0.44676092   -0.00989388    c      6.000     0
          5.88041174   -0.23129875    1.67475240    h      1.000     0
          5.88026947   -0.22433172   -1.69035012    h      1.000     0
          6.72859433    4.59404978    0.01240271    o      8.000     0
         -8.16857254   10.16378116    0.02420753    br    35.000     0
         -8.66908146   -0.70067367   -0.01517156    h      1.000     0
        -12.64870703    1.83497169   -0.01422097    h      1.000     0
 
       center of nuclear mass  :   -4.07477374    5.04199558    0.00389403
       center of nuclear charge:   -3.92943542    4.82591805    0.00308874

              +--------------------------------------------------+
              |               basis set information              |
              +--------------------------------------------------+

              we will work with the 1s 3p 5d 7f 9g ... basis set
              ...i.e. with spherical basis functions...

   type   atoms  prim   cont   basis
   ---------------------------------------------------------------------------
    o        2     24     14   def2-SV(P)   [3s2p1d|7s4p1d]
    c       10     24     14   def2-SV(P)   [3s2p1d|7s4p1d]
    s        2     36     18   def2-SV(P)   [4s3p1d|10s7p1d]
    n        2     24     14   def2-SV(P)   [3s2p1d|7s4p1d]
    h        4      4      2   def2-SV(P)   [2s|4s]
    br       1     74     32   def2-SV(P)   [5s4p3d|14s10p6d]
   ---------------------------------------------------------------------------
   total:   21    498    272
   ---------------------------------------------------------------------------

   total number of primitive shells          :   88
   total number of contracted shells         :  120
   total number of cartesian basis functions :  291
   total number of SCF-basis functions       :  272


 residuum convergence criterium   :  0.10E-04


 integral neglect threshold       :  0.11E-10
 integral storage threshold THIZE :  0.10E-04
 integral storage threshold THIME :         5

 
             FOUND RI-J FLAG !
 
  
 AUXILIARY BASIS SET information:

              we will work with the 1s 3p 5d 7f 9g ... basis set
              ...i.e. with spherical basis functions...

   type   atoms  prim   cont   basis
   ---------------------------------------------------------------------------
    o        2     70     49   def2-SV(P)   [6s4p3d1f1g|12s5p4d2f1g]
    c       10     70     49   def2-SV(P)   [6s4p3d1f1g|12s5p4d2f1g]
    s        2     77     51   def2-SV(P)   [8s4p3d1f1g|14s5p5d2f1g]
    n        2     70     49   def2-SV(P)   [6s4p3d1f1g|12s5p4d2f1g]
    h        4     16     11   def2-SV(P)   [3s1p1d|5s2p1d]
    br       1     89     58   def2-SV(P)   [8s4p3d2f1g|19s5p5d3f1g]
   ---------------------------------------------------------------------------
   total:   21   1287    890
   ---------------------------------------------------------------------------

   total number of primitive shells          :  140
   total number of contracted shells         :  282
   total number of cartesian basis functions : 1101
   total number of SCF-basis functions       :  890

 RPA SINGLET-EXCITATION-CALCULATION 
 
             FOUND DFT-FLAG !
 

 symmetry group of the molecule :   c1 

 the group has the following generators :
   c1(z)

    1 symmetry operations found

 there are 1 real representations :   a   

 maximum number of shells which are related by symmetry :  1

 IRREP of excited state :   a   
 

 determining totally symmetric integral contributions 
    - equivalent to irreducible tensor elements - 
 which can be formed within each triple of representations :

             representation triple      contributions

              a     a     a               1

    mo occupation :
   irrep   mo's   occupied
    a      272       81
 
 number of basis functions   :                    272
 number of occupied orbitals :                     81
 
  
           ------------------
           density functional
           ------------------
 PBE0 hybrid functional
 exchange:    3/4 (LDA+PBE) + 1/4 HF
 correlation: LDA (PW) + PBE

 iterations will be done with small grid
  
 spherical integration : Lebedev's spherical grid
 spherical gridsize    :                     5
    i.e. gridpoints    :                   590
 value for diffuse not defined
 radial integration    : Chebyshev 2nd kind (scaling 3)
 radial gridsize       :                     8
 integration cells     :                    21
 partition function    : becke
 partition sharpness   :                     3
  
  
           ----------------------
               RI - INFORMATION
           ----------------------

 biggest AO integral is expected to be    21.668154127

 Threshold for integral neglect (rithr2):   0.11E-10
 Threshold for integral neglect (rithr1):   0.11E-10

 Contributions to RI integral batches: 
  neglected integral batches:                  2112
  direct contribution:                            0
  memory contribution:                  5148
 Core memory available (ricore)            5000 MiB
 Core memory needed for (P|Q) and Cholesky 7 MiB
 Core memory used for integrals            251 MiB
  
 ****************************************
 Memory allocated for RIDFT 257 MiB
 ****************************************
                                            
  MOs are in ASCII format !


 reading orbital data $scfmo  from file mos
 orbital characterization : scfconv=7
 preparing numerical integration ....
          Overall gridpoints after grid construction =        122127

 Calculating ground state density on molecular grid

 Integral of ground state density: N =   162.0000052968300    



 number of non-frozen orbitals          :   272
 number of non-frozen occupied orbitals :    81



                        -------------------
                         excitation vector 
                        -------------------


 dimension of super-tensorspace: 2

          IRREP   tensor space dimension   number of roots

           a             15471                   1

 maximum number of Davidson iterations set to   25


 machine precision: 2.22D-16


 logfile sing_a    will be constructed


                       Nonorthonormal Krylov Space Iteration


 total number of roots to be determined:   1


 maximum core memory set to  5000 MB,
 corresponding to     3796 vectors in CAO basis


 maximum number of simultaneously treated vectors (including degeneracy):        2


 Iteration IRREP Converged      Max. Euclidean
                 roots          residual norm

    1       a        0        3.000718533546192D-02
 
    2       a        0        1.749657971337129D-02
 
    3       a        0        1.116890092234799D-01
 
    4       a        0        2.614508270453128D-02
 
    5       a        0        1.166100080593140D-02
 
    6       a        0        4.664007822354906D-03
 
    7       a        0        2.286839668310941D-03
 
    8       a        0        1.056231608850578D-03
 
    9       a        0        4.348705340362318D-04
 
   10       a        0        2.180047888317101D-04
 
   11       a        0        8.233782948538027D-05
 
   12       a        0        3.319224301844296D-05
 
   13       a        0        1.264622868791053D-05
 
   14       a        1        5.620048532800337D-06
 

 converged!


 Switching to fine grid

 preparing numerical integration ....
          Overall gridpoints after grid construction =        372356

 Calculating ground state density on molecular grid

 Integral of ground state density: N =   161.9999976752684    



 Iteration IRREP Converged      Max. Euclidean
                 roots          residual norm

   15       a        1        8.740277791337924D-06
 

 converged!

 Eigenpairs written on logfile sing_a   



 IRREP   Vector     Eigenvalue           Euclidean residual norm

  a         1    8.330037487645882D-02    8.740277791337924D-06
 




                    Selection rules for point group c1  


 Subduction with respect to c1  :

    Polar vector representation: a                           

    Axial vector representation: a                           

    Symmetric second rank tensor representation: a                           




                            Ground state


 Total energy:                           -4011.725500987000    

 Charge:

               elec          nuc         total

          -162.000000   161.000000    -1.000000


 Electric dipole moment:

               elec          nuc         total   

    x      637.680206  -632.639103     5.041103    Norm:              7.950520
    y     -783.120812   776.972805    -6.148006
    z       -0.505543     0.497287    -0.008256    Norm / debye:     20.208358


 Electric quadrupole moment:

               elec          nuc         total   

   xx    -7845.775586  7671.234067  -174.541519
   yy    -5933.119208  5796.590325  -136.528882    1/3*trace:      -134.627313
   zz      -98.504543     5.693006   -92.811537
   xy     4835.051201 -4800.368631    34.682570
   xz        5.919025    -5.915822     0.003203    Anisotropy:       92.879693
   yz       -9.946790     9.871484    -0.075306



 ==============================================================================

                              I R R E P   a   

 ==============================================================================


 Excitation is electric dipole allowed

 Excitation is magnetic dipole allowed

 Excitation is electric quadrupole allowed




                         1 singlet a excitation


 Total energy:                           -4011.642200612123    

 Excitation energy:                      0.8330037487645882E-01

 Excitation energy / eV:                  2.266719501872836    

 Excitation energy / nm:                  546.9765619611452    

 Excitation energy / cm^(-1):             18282.31901318236    


 Oscillator strength:

    velocity representation:             0.3085110919042169    

    length representation:               0.3599973236654171    

    mixed representation:                0.3332557292160782    


 Rotatory strength:

    velocity representation:            -0.3706839785920003E-06

    velocity rep. / 10^(-40)erg*cm^3:   -0.2394797038167448E-01

    length representation:              -0.2433380171851557E-07

    length rep. / 10^(-40)erg*cm^3:     -0.1572080792490789E-02


 Dominant contributions:

      occ. orbital   energy / eV   virt. orbital     energy / eV   |coeff.|^2*100
       81 a              -2.01          82 a               0.47       91.7
 

 Change of electron number:

            -0.000000


 Electric transition dipole moment (velocity rep.):

    x        2.316461        Norm:                  2.356989
    y       -0.435205
    z       -0.000046        Norm / debye:          5.990914


 Electric transition dipole moment (length rep.):

    x        2.499512        Norm:                  2.546078
    y       -0.484720
    z       -0.000307        Norm / debye:          6.471535


 Magnetic transition dipole moment / i:

    x       -0.000001        Norm:                  0.001085
    y       -0.000006
    z       -0.001085        Norm / Bohr mag.:      0.297407


 Electric quadrupole transition moment:

   xx      -18.767381
   yy       -4.465575        1/3*trace:            -7.707692
   zz        0.109881
   xy       11.285039
   xz        0.000663        Anisotropy:           25.941668
   yz       -0.005746
 

 Excited state no.    1 chosen for optimization


                       ----------------------
                        CPKS right-hand side 
                       ----------------------


          IRREP   tensor space dimension   number of roots

           a             15471                   1

                          ----------------
                           CPKS equations 
                          ----------------


 logfile dipl_a    will be constructed

 Switching to coarse grid

 preparing numerical integration ....
          Overall gridpoints after grid construction =        122127


                       Nonorthonormal Krylov Space Iteration


 total number of roots to be determined:   1


 maximum core memory set to  5000 MB,
 corresponding to     7544 vectors in CAO basis


 maximum number of simultaneously treated vectors (including degeneracy):        1


 Iteration IRREP Converged      Max. Euclidean
                 roots          residual norm

    1       a        0        1.086260618275493D-01
 
    2       a        0        4.851745968961702D-02
 
    3       a        0        2.232562987040052D-02
 
    4       a        0        9.436757615086678D-03
 
    5       a        0        3.549022049248574D-03
 
    6       a        0        1.238959502379970D-03
 
    7       a        0        4.769683314040632D-04
 
    8       a        0        1.639780401318926D-04
 
    9       a        0        8.217790943500321D-05
 
   10       a        0        1.914660904954177D-05
 
   11       a        1        8.117838684249282D-06
 

 converged!


 Switching to fine grid

 preparing numerical integration ....
          Overall gridpoints after grid construction =        372356

 Iteration IRREP Converged      Max. Euclidean
                 roots          residual norm

   12       a        0        1.628508600823722D-05
 

 NOTE: Residual norms are larger than 1.00D-05 due to mgrid option!

 Eigenpairs written on logfile dipl_a   



 IRREP   Vector     Frequency            Euclidean residual norm

  a         1    0.000000000000000D+00    1.628508600823722D-05
 

                          -------------------
                           relaxed densities 
                          -------------------


    ----------------------------------------
     S+T+V CONTRIBUTIONS TO ENERGY GRADIENT 
    ----------------------------------------

 1e-integral 1st. derivatives will be neglected if expon. factor < 0.100000E-10


    -----------------------------------------------
     TWO ELECTRON CONTRIBUTIONS TO ENERGY GRADIENT 
    -----------------------------------------------

 setting up bound for integral derivative estimation

 increment for numerical differentiation : 0.00050000

 biggest AO integral is expected to be    21.668154127
 biggest cartesian 1st derivative AO integral is expected to be    83.347447328

 biggest 1-particle AO density matrix element is expected to be    3.2069407322

 core memory to be involved in 2e-gradient :
   symmetry shell pair data              :         1
   two particle density+dens. estimates  :      8556
   derivative integrals                  :      8498
   derivative integral bound             :     21780
   totally                               :     30276


 setting up bound for integral derivative estimation

 increment for numerical differentiation : 0.00050000

 biggest AO integral is expected to be    21.668154127
 biggest cartesian 1st derivative AO integral is expected to be    83.347447328

 2e-integral 1st. derivatives will be neglected if expon. factor < 0.100000E-06
 outer boundary for 2e-integral derivative neglection is 0.162057E-08

 Integrated ground state density     :   161.9999976752682    


          ------------------------------------------------
           cartesian gradient of the energy (hartree/bohr)
          ------------------------------------------------

  ATOM      1 o           2 c           3 c           4 c           5 c 
dE/dx -0.3726688D-03  0.4087525D-03  0.2527542D-03  0.3064094D-03  0.8691202D-03
dE/dy  0.2649232D-03 -0.1488880D-02  0.6666688D-03 -0.1307971D-02  0.9643491D-03
dE/dz  0.5441112D-04 -0.1162286D-03  0.6385502D-04 -0.8794297D-04  0.2256445D-03

  ATOM      6 c           7 c           8 s           9 c          10 n 
dE/dx  0.1400796D-04  0.1731238D-02  0.2792921D-04  0.5228336D-03 -0.1356476D-02
dE/dy -0.2979881D-03  0.2464259D-02 -0.2087810D-03  0.6621072D-03 -0.1144384D-03
dE/dz -0.3543457D-03  0.1148632D-03 -0.2508464D-04  0.4779784D-04 -0.7932016D-04

  ATOM     11 c          12 s          13 n          14 c          15 c 
dE/dx  0.5533133D-03 -0.1052863D-03  0.5047768D-03  0.6217337D-03  0.1166515D-02
dE/dy  0.2951740D-03 -0.3144054D-03 -0.3730905D-04  0.1063952D-02  0.2939706D-03
dE/dz  0.7180836D-05  0.7274626D-05  0.4630035D-04 -0.1621441D-03 -0.1617869D-02

  ATOM     16 h          17 h          18 o          19 br         20 h 
dE/dx -0.4666798D-05 -0.9900606D-03 -0.1837341D-02 -0.1870332D-03 -0.1646307D-03
dE/dy -0.1492496D-03  0.2961886D-03 -0.1297294D-02 -0.3577533D-03 -0.3107096D-03
dE/dz -0.5150269D-05  0.1573039D-02  0.1448792D-03  0.2000657D-04  0.1724328D-03

  ATOM     21 h 
dE/dx -0.1973722D-02
dE/dy -0.1100885D-02
dE/dz -0.2992703D-04
 
 resulting FORCE  (fx,fy,fz) = (-.125D-04,-.141D-04,-.328D-06)
 resulting MOMENT (mx,my,mz) = (0.497D-04,-.288D-04,0.974D-04)


 **********************************************************************
  |maximum component of gradient| : 0.24642592E-02  (atom  7 c )       
   gradient norm                  : 0.62471789E-02
 **********************************************************************

 exx =      -0.004041 eyy =      -0.006224 ezz =      -0.002648
 eyz =      -0.000755 exz =       0.001663 exy =       0.002625


 <getgrd> : data group $grad  is missing 

   ***  cartesian gradients written onto <gradient>  ***
 
 
 
 ==============================================================================
                           electrostatic moments
 ==============================================================================

 reference point for electrostatic moments:    0.00000   0.00000   0.00000

 
              nuc           gs,e       ->  gs,tot          excit     ->  total
 ------------------------------------------------------------------------------
                          charge      
 ------------------------------------------------------------------------------
         161.000000    -162.000000      -1.000000       0.000000      -1.000000
 
 ------------------------------------------------------------------------------
                       dipole moment  
 ------------------------------------------------------------------------------
   x    -632.639103     637.680206       5.041103      -1.242557       3.798545
   y     776.972805    -783.120812      -6.148006       1.269299      -4.878707
   z       0.497287      -0.505543      -0.008256       0.004225      -0.004031
 
   | dipole moment | =     6.1831 a.u. =    15.7159 debye 
 
 ------------------------------------------------------------------------------
                     quadrupole moment
 ------------------------------------------------------------------------------
  xx    7671.234067   -7845.775586    -174.541519       2.093400    -172.448119
  yy    5796.590325   -5933.119208    -136.528882      13.565871    -122.963011
  zz       5.693006     -98.504543     -92.811537       0.200026     -92.611512
  xy   -4800.368631    4835.051201      34.682570     -12.131620      22.550950
  xz      -5.915822       5.919025       0.003203      -0.032685      -0.029482
  yz       9.871484      -9.946790      -0.075306       0.029412      -0.045894
 
     1/3  trace=    -129.340881
     anisotropy=      79.984884
 
 ==============================================================================
 


    ------------------------------------------------------------------------
         total  cpu-time :  6 minutes and  7 seconds
         total wall-time :  6 minutes and  7 seconds
    ------------------------------------------------------------------------

   ****  egrad : all done  ****


    2018-02-09 15:40:11.578 

$dipole from egrad
  x     3.79854522996209    y    -4.87870743999281    z    -0.00403067413176    a.u.
   | dipole | =   15.7159960594  debye
/work/bdnguye2/luc_project/7_brluc/ex_geo_opt/save/numforce/KraftWerk/p032
