 operating system is UNIX !

 ridft (missouri) : TURBOMOLE V7.2 ( 21454 ) 4 Oct 2017 at 12:48:15
 Copyright (C) 2017 TURBOMOLE GmbH, Karlsruhe


    2018-02-09 15:46:42.162 



                                  r i d f t

                        DFT program with RI approximation 
                                for coulomb part 




                                                 
                                 References:     
                                                 
          TURBOMOLE:                             
              R. Ahlrichs, M. Baer, M. Haeser, H. Horn, and
              C. Koelmel
              Electronic structure calculations on workstation
              computers: the program system TURBOMOLE
              Chem. Phys. Lett. 162: 165 (1989)
          Density Functional:                              
              O. Treutler and R. Ahlrichs                      
              Efficient Molecular Numerical Integration Schemes
              J. Chem. Phys. 102: 346 (1995)                   
          Parallel Version:                                
              Performance of parallel TURBOMOLE for Density    
              Functional Calculations                          
              M. v. Arnim and R. Ahlrichs                      
              J. Comp. Chem. 19: 1746 (1998)                   
          RI-J Method:                                     
              Auxiliary Basis Sets to approximate Coulomb      
              Potentials                                       
              Chem. Phys. Lett. 240: 283 (1995)                
              K. Eichkorn, O. Treutler, H. Oehm, M. Haeser     
              and R. Ahlrichs                                  
              Chem. Phys. Lett. 242: 652 (1995)                
                                                           
              Auxiliary Basis Sets for Main Row Atoms and their
              Use to approximate Coulomb Potentials            
              K. Eichkorn, F. Weigend, O. Treutler and         
              R. Ahlrichs                                      
              Theo. Chem. Acc. 97: 119 (1997)                   
                                                           
              Accurate Coulomb-fitting basis sets for H to Rn 
              F. Weigend                                        
              Phys. Chem. Chem. Phys. 8: 1057 (2006)            
                                                           
          Multipole accelerated RI-J (MARI-J):             
              Fast evaluation of the Coulomb potential for     
              electron densities using multipole accelerated   
              resolution of identity approximation             
              M. Sierka, A. Hogekamp and R. Ahlrichs           
              J. Chem. Phys. 118: 9136 (2003)                  
          RI-JK Method:                                     
              A fully direct RI-HF algorithm: Implementation,
              optimised auxiliary basis sets, demonstration of
              accuracy and efficiency                         
              F. Weigend                                      
              Phys. Chem. Chem. Phys. 4: 4285 (2002)           
          Two-component HF and DFT with spin-orbit coupling:  
              Self-consistent treatment of spin-orbit         
              interactions with efficient Hartree-Fock and    
              density functional methods                      
              M. K. Armbruster, F. Weigend, C. van Wüllen and 
              W. Klopper                                      
              Phys. Chem. Chem. Phys. 10: 1748 (2008)         
          Relativistic all-electron 2c calculations           
              An efficient implementation of two-component    
              relativistic exact-decoupling methods for large 
              molecules                                       
              D. Peng, N. Middendorf, F. Weigend, M. Reiher   
              J. Chem. Phys. 138, 184105 (2013)               
                                         




              +--------------------------------------------------+
              |      general information about current run       |
              +--------------------------------------------------+

 
 PBE0 hybrid functional
 exchange:    3/4 (LDA+PBE) + 1/4 HF
 correlation: LDA (PW) + PBE
 A Hybrid-DFT calculation using the RI-J approximation will be carried out.
 Allocatable memory for RI due to $ricore (MB):                  5000


              +--------------------------------------------------+
              | Atomic coordinate, charge and isotop information |
              +--------------------------------------------------+

                    atomic coordinates            atom    charge  isotop
        -12.81034095    6.80230924    0.00682544    o      8.000     0
        -10.86506149    5.50118580    0.00214103    c      6.000     0
         -8.33003697    6.65936110    0.01066620    c      6.000     0
         -6.09392834    5.18665417    0.00586784    c      6.000     0
         -6.19605527    2.52651249   -0.00177240    c      6.000     0
         -8.59579767    1.36715441   -0.00794811    c      6.000     0
        -10.80426769    2.76798049   -0.00372920    c      6.000     0
         -3.01653347    6.21925160    0.01342676    s     16.000     0
         -2.04404141    3.03160295    0.00174261    c      6.000     0
         -3.85983527    1.35952939   -0.00464585    n      7.000     0
          0.62457975    2.55130055    0.00001337    c      6.000     0
          1.61834617   -0.65068446   -0.00970112    s     16.000     0
          2.36808172    4.31146305    0.00533282    n      7.000     0
          4.77493113    3.37772826    0.00435573    c      6.000     0
          4.84978992    0.44641891   -0.00885961    c      6.000     0
          5.87892904   -0.23087720    1.67556043    h      1.000     0
          5.87984793   -0.22352369   -1.69138439    h      1.000     0
          6.72711163    4.59670233    0.01206070    o      8.000     0
         -8.16978040   10.16706329    0.02134170    br    35.000     0
         -8.67223705   -0.69587772   -0.01642921    h      1.000     0
        -12.64994693    1.84040408   -0.01422097    h      1.000     0
 
       center of nuclear mass  :   -4.07738404    5.04234019    0.00645826
       center of nuclear charge:   -3.93207550    4.82620403    0.00578173

              +--------------------------------------------------+
              |               basis set information              |
              +--------------------------------------------------+

              we will work with the 1s 3p 5d 7f 9g ... basis set
              ...i.e. with spherical basis functions...

   type   atoms  prim   cont   basis
   ---------------------------------------------------------------------------
    o        2     24     14   def2-SV(P)   [3s2p1d|7s4p1d]
    c       10     24     14   def2-SV(P)   [3s2p1d|7s4p1d]
    s        2     36     18   def2-SV(P)   [4s3p1d|10s7p1d]
    n        2     24     14   def2-SV(P)   [3s2p1d|7s4p1d]
    h        4      4      2   def2-SV(P)   [2s|4s]
    br       1     74     32   def2-SV(P)   [5s4p3d|14s10p6d]
   ---------------------------------------------------------------------------
   total:   21    498    272
   ---------------------------------------------------------------------------

   total number of primitive shells          :   88
   total number of contracted shells         :  120
   total number of cartesian basis functions :  291
   total number of SCF-basis functions       :  272


 integral neglect threshold       :  0.11E-10
 integral storage threshold THIZE :  0.10E-04
 integral storage threshold THIME :         5

 RI-J AUXILIARY BASIS SET information:

              we will work with the 1s 3p 5d 7f 9g ... basis set
              ...i.e. with spherical basis functions...

   type   atoms  prim   cont   basis
   ---------------------------------------------------------------------------
    o        2     70     49   def2-SV(P)   [6s4p3d1f1g|12s5p4d2f1g]
    c       10     70     49   def2-SV(P)   [6s4p3d1f1g|12s5p4d2f1g]
    s        2     77     51   def2-SV(P)   [8s4p3d1f1g|14s5p5d2f1g]
    n        2     70     49   def2-SV(P)   [6s4p3d1f1g|12s5p4d2f1g]
    h        4     16     11   def2-SV(P)   [3s1p1d|5s2p1d]
    br       1     89     58   def2-SV(P)   [8s4p3d2f1g|19s5p5d3f1g]
   ---------------------------------------------------------------------------
   total:   21   1287    890
   ---------------------------------------------------------------------------

   total number of primitive shells          :  140
   total number of contracted shells         :  282
   total number of cartesian basis functions : 1101
   total number of SCF-basis functions       :  890


 symmetry group of the molecule :   c1 

 the group has the following generators :
   c1(z)

    1 symmetry operations found

 there are 1 real representations :   a   

 maximum number of shells which are related by symmetry :  1


    mo occupation :
   irrep   mo's   occupied
    a      272       81
 
 number of basis functions   :                    272
 number of occupied orbitals :                     81
 
  
           ------------------
           density functional
           ------------------
 PBE0 hybrid functional
 exchange:    3/4 (LDA+PBE) + 1/4 HF
 correlation: LDA (PW) + PBE

 iterations will be done with small grid
  
 spherical integration : Lebedev's spherical grid
 spherical gridsize    :                     5
    i.e. gridpoints    :                   590
 value for diffuse not defined
 radial integration    : Chebyshev 2nd kind (scaling 3)
 radial gridsize       :                     8
 integration cells     :                    21
 partition function    : becke
 partition sharpness   :                     3
  

 biggest AO integral is expected to be    21.668154127
  
           ------------------------
               RI-J - INFORMATION
           ------------------------
 Contributions to RI integral batches: 
  neglected integral batches:                  2257
  direct contribution:                            0
  memory contribution:                  5003
 Memory core needed for (P|Q) and Cholesky      7 MByte
 Memory core minimum needed except of (P|Q)     1 MByte
 Total minimum memory core needed (sum)         7 MByte
  
 ****************************************
 Memory allocated for RI-J   249 MByte
 ****************************************
                                            

          ------------------------
          nuclear repulsion energy  :   1710.97896104    
          ------------------------


         -----------------
         -S,T+V- integrals
         -----------------

 1e-integrals will be neglected if expon. factor < 0.114844E-11
 
   Difference densities algorithm switched on.
   The maximal number of linear combinations of
   difference densities is                    20 .

 DIIS switched on: error vector is FDS-SDF
 Max. Iterations for DIIS is     :   4
 DIIS matrix (see manual) 
    Scaling factor of diagonals  :  1.200
    threshold for scaling factor :  0.000

 scf convergence criterion : increment of total energy < .1000000D-06
                  and increment of one-electron energy < .1000000D-03

  MOs are in ASCII format !


 automatic virtual orbital shift switched on 
      shift if e(lumo)-e(homo) < 0.10000000    


 reading orbital data $scfmo  from file mos
 orbital characterization : scfconv=7

 dump of DSCF restart information has been disabled !


 Starting SCF iterations

          Overall gridpoints after grid construction =        122130

 ITERATION  ENERGY          1e-ENERGY        2e-ENERGY     NORM[dD(SAO)]  TOL
   1  -4011.7255278583    -8982.8024836     3260.0979947    0.000D+00 0.115D-10
                            Exc = -172.727115360     Coul =  3488.48450707    
                            exK = -55.6593969877    
                              N = 162.00000450    
                            current damping = 0.700
 
          max. resid. norm for Fia-block=  2.346D-03 for orbital      1a         
          max. resid. fock norm         =  5.286D-03 for orbital    199a         

 ITERATION  ENERGY          1e-ENERGY        2e-ENERGY     NORM[dD(SAO)]  TOL
   2  -4011.7255426002    -8982.8083305     3260.1038269    0.166D-01 0.726D-11
                            Exc = -172.727477135      Eck =  3432.83130400    
                              N = 162.00000451    
                            current damping = 0.650
 
          Norm of current diis error: 0.43787E-02
          max. resid. norm for Fia-block=  9.659D-04 for orbital      1a         
          max. resid. fock norm         =  2.040D-03 for orbital    199a         

 ITERATION  ENERGY          1e-ENERGY        2e-ENERGY     NORM[dD(SAO)]  TOL
   3  -4011.7255448372    -8982.8074563     3260.1029504    0.428D-02 0.557D-11
                            Exc = -172.727653849      Eck =  3432.83060429    
                              N = 162.00000451    
                            current damping = 0.600
 
          Norm of current diis error: 0.31959E-02
          max. resid. norm for Fia-block=  3.806D-04 for orbital      1a         
          max. resid. fock norm         =  7.609D-04 for orbital    199a         

 ITERATION  ENERGY          1e-ENERGY        2e-ENERGY     NORM[dD(SAO)]  TOL
   4  -4011.7255464893    -8982.8104461     3260.1059386    0.130D-02 0.520D-11
                            Exc = -172.727500742      Eck =  3432.83343934    
                              N = 162.00000452    
                            current damping = 0.650
 
          Norm of current diis error: 0.10474E-02
          max. resid. norm for Fia-block=  1.427D-04 for orbital      1a         
          max. resid. fock norm         =  3.110D-04 for orbital    199a         

 ITERATION  ENERGY          1e-ENERGY        2e-ENERGY     NORM[dD(SAO)]  TOL
   5  -4011.7255466751    -8982.8084014     3260.1038937    0.736D-03 0.499D-11
                            Exc = -172.727616947      Eck =  3432.83151065    
                              N = 162.00000451    
                            current damping = 0.700
 
          Norm of current diis error: 0.56765E-03
          max. resid. norm for Fia-block=  5.622D-05 for orbital      1a         
          max. resid. fock norm         =  1.054D-04 for orbital    199a         
          mo-orthogonalization: Cholesky decomposition

 ITERATION  ENERGY          1e-ENERGY        2e-ENERGY     NORM[dD(SAO)]  TOL
   6  -4011.7255469682    -8982.8094745     3260.1049665    0.219D-03 0.484D-11
                            Exc = -172.727591604      Eck =  3432.83255814    
                              N = 162.00000453    
                            current damping = 0.750
 
          Norm of current diis error: 0.17104E-03
          max. resid. norm for Fia-block=  2.314D-05 for orbital      1a         
          max. resid. fock norm         =  4.656D-05 for orbital    199a         

 ENERGY CONVERGED !

          Overall gridpoints after grid construction =        372358

 ITERATION  ENERGY          1e-ENERGY        2e-ENERGY     NORM[dD(SAO)]  TOL
   7  -4011.7255436542    -8982.8096402     3260.1051355    0.111D-03 0.474D-11
                            Exc = -172.727580228      Eck =  3432.83271570    
                              N = 161.99999769    
                            current damping = 0.600
 
          Norm of current diis error: 0.96357E-04
          max. resid. norm for Fia-block=  9.923D-06 for orbital      1a         
          max. resid. fock norm         =  2.017D-05 for orbital    199a         

 End of SCF iterations

   convergence criteria satisfied after     7 iterations


                  ------------------------------------------ 
                 |  total energy      =  -4011.72554365424  |
                  ------------------------------------------ 
                 :  kinetic energy    =   4002.30409787166  :
                 :  potential energy  =  -8014.02964152590  :
                 :  virial theorem    =      1.99765152285  :
                 :  wavefunction norm =      1.00000000000  :
                  .......................................... 


 <geterg> : there is no data group $energy 


 orbitals $scfmo  will be written to file mos

    irrep                 77a         78a         79a         80a         81a   
 eigenvalues H         -0.16875    -0.16304    -0.12872    -0.11948    -0.07391
            eV          -4.5918     -4.4365     -3.5028     -3.2511     -2.0113
 occupation              2.0000      2.0000      2.0000      2.0000      2.0000 

    irrep                 82a         83a         84a         85a         86a   
 eigenvalues H          0.01709     0.10828     0.11894     0.12801     0.13578
            eV           0.4649      2.9466      3.2366      3.4835      3.6948
 
 
 
 
 ==============================================================================
                           electrostatic moments
 ==============================================================================

 reference point for electrostatic moments:    0.00000   0.00000   0.00000

 
              nuc           elec       ->  total
 ------------------------------------------------------------------------------
                          charge      
 ------------------------------------------------------------------------------
         161.000000    -162.000000      -1.000000
 
 ------------------------------------------------------------------------------
                       dipole moment  
 ------------------------------------------------------------------------------
   x    -633.064155     638.105282       5.041126
   y     777.018849    -783.175486      -6.156636
   z       0.930858      -0.942779      -0.011920
 
   | dipole moment | =     7.9572 a.u. =    20.2252 debye 
 
 ------------------------------------------------------------------------------
                     quadrupole moment
 ------------------------------------------------------------------------------
  xx    7673.207662   -7847.779468    -174.571805
  yy    5798.205545   -5934.819726    -136.614181
  zz       5.692975     -98.501769     -92.808793
  xy   -4801.966903    4836.692500      34.725597
  xz      -6.934430       6.973157       0.038727
  yz      10.561511     -10.641259      -0.079748
 
     1/3  trace=    -134.664927
     anisotropy=      92.951958
 
 ==============================================================================
 


    ------------------------------------------------------------------------
         total  cpu-time :  57.25 seconds
         total wall-time :  57.26 seconds
    ------------------------------------------------------------------------

   ****  ridft : all done  ****


    2018-02-09 15:47:39.413 


 egrad (missouri) : TURBOMOLE V7.2 ( 21454 ) 4 Oct 2017 at 12:24:43
 Copyright (C) 2017 TURBOMOLE GmbH, Karlsruhe


    2018-02-09 15:47:39.424 




                               e g r a d

                             TURBOMOLE GmbH


             integral direct evaluation of excited state
                     and polarizability gradients
                 and first-order nonadiabatic couplings



          references (see also programs escf, dscf and ridft) 

          review 
          F. Furche and D. Rappoport,  
          "Density functional methods for excited states: 
          equilibrium structure and electronic spectra",
          ch. III of "Computational Photochemistry", ed. by 
          M. Olivucci, vol. 16 of "Theoretical and Computational 
          Chemistry", Elsevier, Amsterdam, 2005.

          nonorthonormal Krylov space methods 
          F. Furche, B. T. Krull, B. D. Nguyen, J. Kwon, 
          J. Chem. Phys. 144 (2016), 174105.

          RI-J method 
          D. Rappoport and F. Furche, 
          J. Chem. Phys. 122 (2005), 064105.

          Lagrangian method, implementation, benchmarks 
          F. Furche and R. Ahlrichs,
          J. Chem. Phys. 117 (2002), 7433;
          J. Chem. Phys. 121 (2004), 12772 (E).

          Polarizability derivatives, Raman intensities 
          D. Rappoport and F. Furche, 
          J. Chem. Phys. 126 (2007), 201104.

          First-order nonadiabatic couplings 
          R. Send and F. Furche, 
          J. Chem. Phys. 132 (2010), 044107.
                                     




              +--------------------------------------------------+
              | Atomic coordinate, charge and isotop information |
              +--------------------------------------------------+

                    atomic coordinates            atom    charge  isotop
        -12.81034095    6.80230924    0.00682544    o      8.000     0
        -10.86506149    5.50118580    0.00214103    c      6.000     0
         -8.33003697    6.65936110    0.01066620    c      6.000     0
         -6.09392834    5.18665417    0.00586784    c      6.000     0
         -6.19605527    2.52651249   -0.00177240    c      6.000     0
         -8.59579767    1.36715441   -0.00794811    c      6.000     0
        -10.80426769    2.76798049   -0.00372920    c      6.000     0
         -3.01653347    6.21925160    0.01342676    s     16.000     0
         -2.04404141    3.03160295    0.00174261    c      6.000     0
         -3.85983527    1.35952939   -0.00464585    n      7.000     0
          0.62457975    2.55130055    0.00001337    c      6.000     0
          1.61834617   -0.65068446   -0.00970112    s     16.000     0
          2.36808172    4.31146305    0.00533282    n      7.000     0
          4.77493113    3.37772826    0.00435573    c      6.000     0
          4.84978992    0.44641891   -0.00885961    c      6.000     0
          5.87892904   -0.23087720    1.67556043    h      1.000     0
          5.87984793   -0.22352369   -1.69138439    h      1.000     0
          6.72711163    4.59670233    0.01206070    o      8.000     0
         -8.16978040   10.16706329    0.02134170    br    35.000     0
         -8.67223705   -0.69587772   -0.01642921    h      1.000     0
        -12.64994693    1.84040408   -0.01422097    h      1.000     0
 
       center of nuclear mass  :   -4.07738404    5.04234019    0.00645826
       center of nuclear charge:   -3.93207550    4.82620403    0.00578173

              +--------------------------------------------------+
              |               basis set information              |
              +--------------------------------------------------+

              we will work with the 1s 3p 5d 7f 9g ... basis set
              ...i.e. with spherical basis functions...

   type   atoms  prim   cont   basis
   ---------------------------------------------------------------------------
    o        2     24     14   def2-SV(P)   [3s2p1d|7s4p1d]
    c       10     24     14   def2-SV(P)   [3s2p1d|7s4p1d]
    s        2     36     18   def2-SV(P)   [4s3p1d|10s7p1d]
    n        2     24     14   def2-SV(P)   [3s2p1d|7s4p1d]
    h        4      4      2   def2-SV(P)   [2s|4s]
    br       1     74     32   def2-SV(P)   [5s4p3d|14s10p6d]
   ---------------------------------------------------------------------------
   total:   21    498    272
   ---------------------------------------------------------------------------

   total number of primitive shells          :   88
   total number of contracted shells         :  120
   total number of cartesian basis functions :  291
   total number of SCF-basis functions       :  272


 residuum convergence criterium   :  0.10E-04


 integral neglect threshold       :  0.11E-10
 integral storage threshold THIZE :  0.10E-04
 integral storage threshold THIME :         5

 
             FOUND RI-J FLAG !
 
  
 AUXILIARY BASIS SET information:

              we will work with the 1s 3p 5d 7f 9g ... basis set
              ...i.e. with spherical basis functions...

   type   atoms  prim   cont   basis
   ---------------------------------------------------------------------------
    o        2     70     49   def2-SV(P)   [6s4p3d1f1g|12s5p4d2f1g]
    c       10     70     49   def2-SV(P)   [6s4p3d1f1g|12s5p4d2f1g]
    s        2     77     51   def2-SV(P)   [8s4p3d1f1g|14s5p5d2f1g]
    n        2     70     49   def2-SV(P)   [6s4p3d1f1g|12s5p4d2f1g]
    h        4     16     11   def2-SV(P)   [3s1p1d|5s2p1d]
    br       1     89     58   def2-SV(P)   [8s4p3d2f1g|19s5p5d3f1g]
   ---------------------------------------------------------------------------
   total:   21   1287    890
   ---------------------------------------------------------------------------

   total number of primitive shells          :  140
   total number of contracted shells         :  282
   total number of cartesian basis functions : 1101
   total number of SCF-basis functions       :  890

 RPA SINGLET-EXCITATION-CALCULATION 
 
             FOUND DFT-FLAG !
 

 symmetry group of the molecule :   c1 

 the group has the following generators :
   c1(z)

    1 symmetry operations found

 there are 1 real representations :   a   

 maximum number of shells which are related by symmetry :  1

 IRREP of excited state :   a   
 

 determining totally symmetric integral contributions 
    - equivalent to irreducible tensor elements - 
 which can be formed within each triple of representations :

             representation triple      contributions

              a     a     a               1

    mo occupation :
   irrep   mo's   occupied
    a      272       81
 
 number of basis functions   :                    272
 number of occupied orbitals :                     81
 
  
           ------------------
           density functional
           ------------------
 PBE0 hybrid functional
 exchange:    3/4 (LDA+PBE) + 1/4 HF
 correlation: LDA (PW) + PBE

 iterations will be done with small grid
  
 spherical integration : Lebedev's spherical grid
 spherical gridsize    :                     5
    i.e. gridpoints    :                   590
 value for diffuse not defined
 radial integration    : Chebyshev 2nd kind (scaling 3)
 radial gridsize       :                     8
 integration cells     :                    21
 partition function    : becke
 partition sharpness   :                     3
  
  
           ----------------------
               RI - INFORMATION
           ----------------------

 biggest AO integral is expected to be    21.668154127

 Threshold for integral neglect (rithr2):   0.11E-10
 Threshold for integral neglect (rithr1):   0.11E-10

 Contributions to RI integral batches: 
  neglected integral batches:                  2113
  direct contribution:                            0
  memory contribution:                  5147
 Core memory available (ricore)            5000 MiB
 Core memory needed for (P|Q) and Cholesky 7 MiB
 Core memory used for integrals            251 MiB
  
 ****************************************
 Memory allocated for RIDFT 257 MiB
 ****************************************
                                            
  MOs are in ASCII format !


 reading orbital data $scfmo  from file mos
 orbital characterization : scfconv=7
 preparing numerical integration ....
          Overall gridpoints after grid construction =        122130

 Calculating ground state density on molecular grid

 Integral of ground state density: N =   162.0000045346360    



 number of non-frozen orbitals          :   272
 number of non-frozen occupied orbitals :    81



                        -------------------
                         excitation vector 
                        -------------------


 dimension of super-tensorspace: 2

          IRREP   tensor space dimension   number of roots

           a             15471                   1

 maximum number of Davidson iterations set to   25


 machine precision: 2.22D-16


 logfile sing_a    will be constructed


                       Nonorthonormal Krylov Space Iteration


 total number of roots to be determined:   1


 maximum core memory set to  5000 MB,
 corresponding to     3796 vectors in CAO basis


 maximum number of simultaneously treated vectors (including degeneracy):        2


 Iteration IRREP Converged      Max. Euclidean
                 roots          residual norm

    1       a        0        3.007295993889822D-02
 
    2       a        0        3.043229517786706D-02
 
    3       a        0        6.179643854980639D-02
 
    4       a        0        2.349011856268076D-02
 
    5       a        0        8.249524902971985D-03
 
    6       a        0        3.933633539999369D-03
 
    7       a        0        1.679536913612883D-03
 
    8       a        0        7.753272726647456D-04
 
    9       a        0        3.261163947935903D-04
 
   10       a        0        1.334055999470891D-04
 
   11       a        0        6.761822713594048D-05
 
   12       a        0        2.387528160858570D-05
 
   13       a        1        8.978590395807602D-06
 

 converged!


 Switching to fine grid

 preparing numerical integration ....
          Overall gridpoints after grid construction =        372358

 Calculating ground state density on molecular grid

 Integral of ground state density: N =   161.9999976936344    



 Iteration IRREP Converged      Max. Euclidean
                 roots          residual norm

   14       a        0        1.110640346427476D-05
 

 NOTE: Residual norms are larger than 1.00D-05 due to mgrid option!

 Eigenpairs written on logfile sing_a   



 IRREP   Vector     Eigenvalue           Euclidean residual norm

  a         1    8.333210829223088D-02    1.110640346427476D-05
 




                    Selection rules for point group c1  


 Subduction with respect to c1  :

    Polar vector representation: a                           

    Axial vector representation: a                           

    Symmetric second rank tensor representation: a                           




                            Ground state


 Total energy:                           -4011.725543654000    

 Charge:

               elec          nuc         total

          -162.000000   161.000000    -1.000000


 Electric dipole moment:

               elec          nuc         total   

    x      638.105282  -633.064155     5.041126    Norm:              7.957215
    y     -783.175486   777.018849    -6.156636
    z       -0.942779     0.930858    -0.011920    Norm / debye:     20.225375


 Electric quadrupole moment:

               elec          nuc         total   

   xx    -7847.779468  7673.207662  -174.571805
   yy    -5934.819726  5798.205545  -136.614181    1/3*trace:      -134.664927
   zz      -98.501769     5.692975   -92.808793
   xy     4836.692500 -4801.966903    34.725597
   xz        6.973157    -6.934430     0.038727    Anisotropy:       92.951958
   yz      -10.641259    10.561511    -0.079748



 ==============================================================================

                              I R R E P   a   

 ==============================================================================


 Excitation is electric dipole allowed

 Excitation is magnetic dipole allowed

 Excitation is electric quadrupole allowed




                         1 singlet a excitation


 Total energy:                           -4011.642211545708    

 Excitation energy:                      0.8333210829223088E-01

 Excitation energy / eV:                  2.267583012421237    

 Excitation energy / nm:                  546.7682696832466    

 Excitation energy / cm^(-1):             18289.28369288978    


 Oscillator strength:

    velocity representation:             0.3082731247129735    

    length representation:               0.3594661322284593    

    mixed representation:                0.3328811742618050    


 Rotatory strength:

    velocity representation:            -0.4003293505770702E-05

    velocity rep. / 10^(-40)erg*cm^3:   -0.2586320419606492    

    length representation:              -0.3895986776085240E-05

    length rep. / 10^(-40)erg*cm^3:     -0.2516995103901647    


 Dominant contributions:

      occ. orbital   energy / eV   virt. orbital     energy / eV   |coeff.|^2*100
       81 a              -2.01          82 a               0.46       91.6
 

 Change of electron number:

             0.000000


 Electric transition dipole moment (velocity rep.):

    x       -2.315087        Norm:                  2.355631
    y        0.435166
    z       -0.000191        Norm / debye:          5.987462


 Electric transition dipole moment (length rep.):

    x       -2.497113        Norm:                  2.543715
    y        0.484675
    z        0.000176        Norm / debye:          6.465527


 Magnetic transition dipole moment / i:

    x        0.000002        Norm:                  0.001078
    y        0.000001
    z        0.001078        Norm / Bohr mag.:      0.295430


 Electric quadrupole transition moment:

   xx       18.756591
   yy        4.456935        1/3*trace:             7.701053
   zz       -0.110367
   xy      -11.272399
   xz       -0.006309        Anisotropy:           25.920115
   yz        0.004119
 

 Excited state no.    1 chosen for optimization


                       ----------------------
                        CPKS right-hand side 
                       ----------------------


          IRREP   tensor space dimension   number of roots

           a             15471                   1

                          ----------------
                           CPKS equations 
                          ----------------


 logfile dipl_a    will be constructed

 Switching to coarse grid

 preparing numerical integration ....
          Overall gridpoints after grid construction =        122130


                       Nonorthonormal Krylov Space Iteration


 total number of roots to be determined:   1


 maximum core memory set to  5000 MB,
 corresponding to     7544 vectors in CAO basis


 maximum number of simultaneously treated vectors (including degeneracy):        1


 Iteration IRREP Converged      Max. Euclidean
                 roots          residual norm

    1       a        0        1.088599189195018D-01
 
    2       a        0        4.857113204101526D-02
 
    3       a        0        2.232852830665410D-02
 
    4       a        0        9.436953160251014D-03
 
    5       a        0        3.550524613308282D-03
 
    6       a        0        1.237402626386823D-03
 
    7       a        0        4.747478884729271D-04
 
    8       a        0        1.636663650310165D-04
 
    9       a        0        8.212024386000384D-05
 
   10       a        0        1.906413999317046D-05
 
   11       a        1        8.086488206329477D-06
 

 converged!


 Switching to fine grid

 preparing numerical integration ....
          Overall gridpoints after grid construction =        372358

 Iteration IRREP Converged      Max. Euclidean
                 roots          residual norm

   12       a        0        1.629704661262582D-05
 

 NOTE: Residual norms are larger than 1.00D-05 due to mgrid option!

 Eigenpairs written on logfile dipl_a   



 IRREP   Vector     Frequency            Euclidean residual norm

  a         1    0.000000000000000D+00    1.629704661262582D-05
 

                          -------------------
                           relaxed densities 
                          -------------------


    ----------------------------------------
     S+T+V CONTRIBUTIONS TO ENERGY GRADIENT 
    ----------------------------------------

 1e-integral 1st. derivatives will be neglected if expon. factor < 0.100000E-10


    -----------------------------------------------
     TWO ELECTRON CONTRIBUTIONS TO ENERGY GRADIENT 
    -----------------------------------------------

 setting up bound for integral derivative estimation

 increment for numerical differentiation : 0.00050000

 biggest AO integral is expected to be    21.668154127
 biggest cartesian 1st derivative AO integral is expected to be    83.347447328

 biggest 1-particle AO density matrix element is expected to be    3.2070564453

 core memory to be involved in 2e-gradient :
   symmetry shell pair data              :         1
   two particle density+dens. estimates  :      8556
   derivative integrals                  :      8498
   derivative integral bound             :     21780
   totally                               :     30276


 setting up bound for integral derivative estimation

 increment for numerical differentiation : 0.00050000

 biggest AO integral is expected to be    21.668154127
 biggest cartesian 1st derivative AO integral is expected to be    83.347447328

 2e-integral 1st. derivatives will be neglected if expon. factor < 0.100000E-06
 outer boundary for 2e-integral derivative neglection is 0.162045E-08

 Integrated ground state density     :   161.9999976936339    


          ------------------------------------------------
           cartesian gradient of the energy (hartree/bohr)
          ------------------------------------------------

  ATOM      1 o           2 c           3 c           4 c           5 c 
dE/dx -0.5290740D-03  0.1450086D-02 -0.4976497D-03  0.1334040D-02  0.4472280D-03
dE/dy  0.2647283D-03 -0.5150101D-03 -0.4706233D-03 -0.8666986D-03 -0.1211529D-02
dE/dz  0.1940195D-03 -0.5569168D-03  0.2488721D-03 -0.2321277D-03  0.1099126D-03

  ATOM      6 c           7 c           8 s           9 c          10 n 
dE/dx  0.1724442D-02 -0.1870705D-02 -0.1343160D-03 -0.1202359D-02 -0.5136623D-03
dE/dy -0.1442023D-02 -0.3246336D-03  0.2014484D-03 -0.1002889D-02  0.1922501D-02
dE/dz -0.6130998D-04  0.4184413D-03  0.8498912D-04 -0.1769817D-04  0.1117832D-04

  ATOM     11 c          12 s          13 n          14 c          15 c 
dE/dx -0.6757936D-03 -0.4216518D-03  0.7133007D-03 -0.9448611D-04  0.8157563D-03
dE/dy -0.5176476D-03  0.3681188D-03  0.1631886D-03  0.6508968D-03 -0.1761394D-04
dE/dz  0.3830139D-05  0.1044867D-03 -0.9863089D-04  0.2768912D-03 -0.1324163D-02

  ATOM     16 h          17 h          18 o          19 br         20 h 
dE/dx  0.3508492D-04 -0.4390050D-03 -0.1624529D-03 -0.1149411D-03 -0.2046959D-03
dE/dy -0.6626090D-04  0.1035237D-03 -0.3814981D-03  0.8624234D-03  0.1838833D-02
dE/dz  0.5392228D-04  0.9613629D-03 -0.2913513D-05 -0.2465432D-04 -0.1538117D-04

  ATOM     21 h 
dE/dx  0.3284293D-03
dE/dy  0.4268397D-03
dE/dz -0.1341630D-03
 
 resulting FORCE  (fx,fy,fz) = (-.124D-04,-.139D-04,-.523D-07)
 resulting MOMENT (mx,my,mz) = (-.439D-05,0.849D-08,0.733D-04)


 **********************************************************************
  |maximum component of gradient| : 0.19225012E-02  (atom 10 n )       
   gradient norm                  : 0.57875462E-02
 **********************************************************************

 exx =      -0.006317 eyy =      -0.005920 ezz =      -0.001521
 eyz =      -0.000313 exz =       0.000789 exy =       0.001743


 <getgrd> : data group $grad  is missing 

   ***  cartesian gradients written onto <gradient>  ***
 
 
 
 ==============================================================================
                           electrostatic moments
 ==============================================================================

 reference point for electrostatic moments:    0.00000   0.00000   0.00000

 
              nuc           gs,e       ->  gs,tot          excit     ->  total
 ------------------------------------------------------------------------------
                          charge      
 ------------------------------------------------------------------------------
         161.000000    -162.000000      -1.000000       0.000000      -1.000000
 
 ------------------------------------------------------------------------------
                       dipole moment  
 ------------------------------------------------------------------------------
   x    -633.064155     638.105282       5.041126      -1.247098       3.794029
   y     777.018849    -783.175486      -6.156636       1.272726      -4.883910
   z       0.930858      -0.942779      -0.011920       0.003770      -0.008151
 
   | dipole moment | =     6.1844 a.u. =    15.7193 debye 
 
 ------------------------------------------------------------------------------
                     quadrupole moment
 ------------------------------------------------------------------------------
  xx    7673.207662   -7847.779468    -174.571805       2.101261    -172.470544
  yy    5798.205545   -5934.819726    -136.614181      13.592340    -123.021842
  zz       5.692975     -98.501769     -92.808793       0.199014     -92.609779
  xy   -4801.966903    4836.692500      34.725597     -12.171118      22.554479
  xz      -6.934430       6.973157       0.038727      -0.028797       0.009930
  yz      10.561511     -10.641259      -0.079748       0.029083      -0.050666
 
     1/3  trace=    -129.367388
     anisotropy=      80.000165
 
 ==============================================================================
 


    ------------------------------------------------------------------------
         total  cpu-time :  5 minutes and 37 seconds
         total wall-time :  5 minutes and 37 seconds
    ------------------------------------------------------------------------

   ****  egrad : all done  ****


    2018-02-09 15:53:16.798 

$dipole from egrad
  x     3.79402852892235    y    -4.88391027106115    z    -0.00815059673652    a.u.
   | dipole | =   15.7193974104  debye
/work/bdnguye2/luc_project/7_brluc/ex_geo_opt/save/numforce/KraftWerk/p034
