 operating system is UNIX !

 ridft (missouri) : TURBOMOLE V7.2 ( 21454 ) 4 Oct 2017 at 12:48:15
 Copyright (C) 2017 TURBOMOLE GmbH, Karlsruhe


    2018-02-09 15:53:16.843 



                                  r i d f t

                        DFT program with RI approximation 
                                for coulomb part 




                                                 
                                 References:     
                                                 
          TURBOMOLE:                             
              R. Ahlrichs, M. Baer, M. Haeser, H. Horn, and
              C. Koelmel
              Electronic structure calculations on workstation
              computers: the program system TURBOMOLE
              Chem. Phys. Lett. 162: 165 (1989)
          Density Functional:                              
              O. Treutler and R. Ahlrichs                      
              Efficient Molecular Numerical Integration Schemes
              J. Chem. Phys. 102: 346 (1995)                   
          Parallel Version:                                
              Performance of parallel TURBOMOLE for Density    
              Functional Calculations                          
              M. v. Arnim and R. Ahlrichs                      
              J. Comp. Chem. 19: 1746 (1998)                   
          RI-J Method:                                     
              Auxiliary Basis Sets to approximate Coulomb      
              Potentials                                       
              Chem. Phys. Lett. 240: 283 (1995)                
              K. Eichkorn, O. Treutler, H. Oehm, M. Haeser     
              and R. Ahlrichs                                  
              Chem. Phys. Lett. 242: 652 (1995)                
                                                           
              Auxiliary Basis Sets for Main Row Atoms and their
              Use to approximate Coulomb Potentials            
              K. Eichkorn, F. Weigend, O. Treutler and         
              R. Ahlrichs                                      
              Theo. Chem. Acc. 97: 119 (1997)                   
                                                           
              Accurate Coulomb-fitting basis sets for H to Rn 
              F. Weigend                                        
              Phys. Chem. Chem. Phys. 8: 1057 (2006)            
                                                           
          Multipole accelerated RI-J (MARI-J):             
              Fast evaluation of the Coulomb potential for     
              electron densities using multipole accelerated   
              resolution of identity approximation             
              M. Sierka, A. Hogekamp and R. Ahlrichs           
              J. Chem. Phys. 118: 9136 (2003)                  
          RI-JK Method:                                     
              A fully direct RI-HF algorithm: Implementation,
              optimised auxiliary basis sets, demonstration of
              accuracy and efficiency                         
              F. Weigend                                      
              Phys. Chem. Chem. Phys. 4: 4285 (2002)           
          Two-component HF and DFT with spin-orbit coupling:  
              Self-consistent treatment of spin-orbit         
              interactions with efficient Hartree-Fock and    
              density functional methods                      
              M. K. Armbruster, F. Weigend, C. van Wüllen and 
              W. Klopper                                      
              Phys. Chem. Chem. Phys. 10: 1748 (2008)         
          Relativistic all-electron 2c calculations           
              An efficient implementation of two-component    
              relativistic exact-decoupling methods for large 
              molecules                                       
              D. Peng, N. Middendorf, F. Weigend, M. Reiher   
              J. Chem. Phys. 138, 184105 (2013)               
                                         




              +--------------------------------------------------+
              |      general information about current run       |
              +--------------------------------------------------+

 
 PBE0 hybrid functional
 exchange:    3/4 (LDA+PBE) + 1/4 HF
 correlation: LDA (PW) + PBE
 A Hybrid-DFT calculation using the RI-J approximation will be carried out.
 Allocatable memory for RI due to $ricore (MB):                  5000


              +--------------------------------------------------+
              | Atomic coordinate, charge and isotop information |
              +--------------------------------------------------+

                    atomic coordinates            atom    charge  isotop
        -12.81047757    6.80212618    0.00746768    o      8.000     0
        -10.86529784    5.50125868    0.00327616    c      6.000     0
         -8.33158310    6.65900821    0.01166128    c      6.000     0
         -6.09569521    5.18836652    0.00763599    c      6.000     0
         -6.19861300    2.52784686   -0.00240255    c      6.000     0
         -8.59903338    1.37083191   -0.00759334    c      6.000     0
        -10.80579783    2.77175996   -0.00720334    c      6.000     0
         -3.01930400    6.22318142    0.01068549    s     16.000     0
         -2.04242817    3.03646178   -0.00368140    c      6.000     0
         -3.85966134    1.36097818   -0.01017070    n      7.000     0
          0.62968754    2.55439693   -0.00458365    c      6.000     0
          1.62252107   -0.65347050   -0.01548640    s     16.000     0
          2.37460314    4.31040872    0.00446787    n      7.000     0
          4.78163948    3.37142441    0.00156520    c      6.000     0
          4.85432463    0.44109219   -0.00500353    c      6.000     0
          5.88485303   -0.23769556    1.67758408    h      1.000     0
          5.87971800   -0.22308594   -1.69214820    h      1.000     0
          6.72661444    4.59773971    0.01117757    o      8.000     0
         -8.16904864   10.16871635    0.01911437    br    35.000     0
         -8.67194987   -0.69545087   -0.01906944    h      1.000     0
        -12.64716089    1.84174576   -0.00918144    h      1.000     0
 
       center of nuclear mass  :   -4.07652706    5.04313840    0.00448740
       center of nuclear charge:   -3.93119790    4.82695205    0.00385491

              +--------------------------------------------------+
              |               basis set information              |
              +--------------------------------------------------+

              we will work with the 1s 3p 5d 7f 9g ... basis set
              ...i.e. with spherical basis functions...

   type   atoms  prim   cont   basis
   ---------------------------------------------------------------------------
    o        2     24     14   def2-SV(P)   [3s2p1d|7s4p1d]
    c       10     24     14   def2-SV(P)   [3s2p1d|7s4p1d]
    s        2     36     18   def2-SV(P)   [4s3p1d|10s7p1d]
    n        2     24     14   def2-SV(P)   [3s2p1d|7s4p1d]
    h        4      4      2   def2-SV(P)   [2s|4s]
    br       1     74     32   def2-SV(P)   [5s4p3d|14s10p6d]
   ---------------------------------------------------------------------------
   total:   21    498    272
   ---------------------------------------------------------------------------

   total number of primitive shells          :   88
   total number of contracted shells         :  120
   total number of cartesian basis functions :  291
   total number of SCF-basis functions       :  272


 integral neglect threshold       :  0.11E-10
 integral storage threshold THIZE :  0.10E-04
 integral storage threshold THIME :         5

 RI-J AUXILIARY BASIS SET information:

              we will work with the 1s 3p 5d 7f 9g ... basis set
              ...i.e. with spherical basis functions...

   type   atoms  prim   cont   basis
   ---------------------------------------------------------------------------
    o        2     70     49   def2-SV(P)   [6s4p3d1f1g|12s5p4d2f1g]
    c       10     70     49   def2-SV(P)   [6s4p3d1f1g|12s5p4d2f1g]
    s        2     77     51   def2-SV(P)   [8s4p3d1f1g|14s5p5d2f1g]
    n        2     70     49   def2-SV(P)   [6s4p3d1f1g|12s5p4d2f1g]
    h        4     16     11   def2-SV(P)   [3s1p1d|5s2p1d]
    br       1     89     58   def2-SV(P)   [8s4p3d2f1g|19s5p5d3f1g]
   ---------------------------------------------------------------------------
   total:   21   1287    890
   ---------------------------------------------------------------------------

   total number of primitive shells          :  140
   total number of contracted shells         :  282
   total number of cartesian basis functions : 1101
   total number of SCF-basis functions       :  890


 symmetry group of the molecule :   c1 

 the group has the following generators :
   c1(z)

    1 symmetry operations found

 there are 1 real representations :   a   

 maximum number of shells which are related by symmetry :  1


    mo occupation :
   irrep   mo's   occupied
    a      272       81
 
 number of basis functions   :                    272
 number of occupied orbitals :                     81
 
  
           ------------------
           density functional
           ------------------
 PBE0 hybrid functional
 exchange:    3/4 (LDA+PBE) + 1/4 HF
 correlation: LDA (PW) + PBE

 iterations will be done with small grid
  
 spherical integration : Lebedev's spherical grid
 spherical gridsize    :                     5
    i.e. gridpoints    :                   590
 value for diffuse not defined
 radial integration    : Chebyshev 2nd kind (scaling 3)
 radial gridsize       :                     8
 integration cells     :                    21
 partition function    : becke
 partition sharpness   :                     3
  

 biggest AO integral is expected to be    21.668154127
  
           ------------------------
               RI-J - INFORMATION
           ------------------------
 Contributions to RI integral batches: 
  neglected integral batches:                  2257
  direct contribution:                            0
  memory contribution:                  5003
 Memory core needed for (P|Q) and Cholesky      7 MByte
 Memory core minimum needed except of (P|Q)     1 MByte
 Total minimum memory core needed (sum)         7 MByte
  
 ****************************************
 Memory allocated for RI-J   249 MByte
 ****************************************
                                            

          ------------------------
          nuclear repulsion energy  :   1710.63910257    
          ------------------------


         -----------------
         -S,T+V- integrals
         -----------------

 1e-integrals will be neglected if expon. factor < 0.114844E-11
 
   Difference densities algorithm switched on.
   The maximal number of linear combinations of
   difference densities is                    20 .

 DIIS switched on: error vector is FDS-SDF
 Max. Iterations for DIIS is     :   4
 DIIS matrix (see manual) 
    Scaling factor of diagonals  :  1.200
    threshold for scaling factor :  0.000

 scf convergence criterion : increment of total energy < .1000000D-06
                  and increment of one-electron energy < .1000000D-03

  MOs are in ASCII format !


 automatic virtual orbital shift switched on 
      shift if e(lumo)-e(homo) < 0.10000000    


 reading orbital data $scfmo  from file mos
 orbital characterization : scfconv=7

 dump of DSCF restart information has been disabled !


 Starting SCF iterations

          Overall gridpoints after grid construction =        122130

 ITERATION  ENERGY          1e-ENERGY        2e-ENERGY     NORM[dD(SAO)]  TOL
   1  -4011.7255534330    -8982.1272792     3259.7626232    0.000D+00 0.115D-10
                            Exc = -172.726370362     Coul =  3488.14815686    
                            exK = -55.6591632779    
                              N = 162.00000452    
                            current damping = 0.700
 
          max. resid. norm for Fia-block=  2.459D-03 for orbital      1a         
          max. resid. fock norm         =  5.304D-03 for orbital    269a         

 ITERATION  ENERGY          1e-ENERGY        2e-ENERGY     NORM[dD(SAO)]  TOL
   2  -4011.7255798406    -8982.1301269     3259.7654445    0.167D-01 0.726D-11
                            Exc = -172.726674679      Eck =  3432.49211920    
                              N = 162.00000446    
                            current damping = 0.650
 
          Norm of current diis error: 0.58019E-02
          max. resid. norm for Fia-block=  1.013D-03 for orbital      1a         
          max. resid. fock norm         =  2.235D-03 for orbital    269a         

 ITERATION  ENERGY          1e-ENERGY        2e-ENERGY     NORM[dD(SAO)]  TOL
   3  -4011.7255841580    -8982.1394464     3259.7747596    0.548D-02 0.571D-11
                            Exc = -172.726987960      Eck =  3432.50174761    
                              N = 162.00000448    
                            current damping = 0.500
 
          Norm of current diis error: 0.43877E-02
          max. resid. norm for Fia-block=  3.990D-04 for orbital      1a         
          max. resid. fock norm         =  8.474D-04 for orbital    269a         

 ITERATION  ENERGY          1e-ENERGY        2e-ENERGY     NORM[dD(SAO)]  TOL
   4  -4011.7255870567    -8982.1346290     3259.7699394    0.172D-02 0.523D-11
                            Exc = -172.726922094      Eck =  3432.49686151    
                              N = 162.00000444    
                            current damping = 0.550
 
          Norm of current diis error: 0.15266E-02
          max. resid. norm for Fia-block=  1.331D-04 for orbital      1a         
          max. resid. fock norm         =  3.060D-04 for orbital    269a         

 ITERATION  ENERGY          1e-ENERGY        2e-ENERGY     NORM[dD(SAO)]  TOL
   5  -4011.7255873887    -8982.1353279     3259.7706379    0.126D-02 0.509D-11
                            Exc = -172.726816499      Eck =  3432.49745444    
                              N = 162.00000445    
                            current damping = 0.600
 
          Norm of current diis error: 0.88518E-03
          max. resid. norm for Fia-block=  6.285D-05 for orbital     80a         
          max. resid. fock norm         =  1.044D-04 for orbital     41a         
          mo-orthogonalization: Cholesky decomposition

 ITERATION  ENERGY          1e-ENERGY        2e-ENERGY     NORM[dD(SAO)]  TOL
   6  -4011.7255877664    -8982.1354523     3259.7707620    0.307D-03 0.494D-11
                            Exc = -172.726921541      Eck =  3432.49768355    
                              N = 162.00000446    
                            current damping = 0.450
 
          Norm of current diis error: 0.21762E-03
          max. resid. norm for Fia-block=  2.079D-05 for orbital     81a         
          max. resid. fock norm         =  3.935D-05 for orbital    269a         

 ITERATION  ENERGY          1e-ENERGY        2e-ENERGY     NORM[dD(SAO)]  TOL
   7  -4011.7255877692    -8982.1363554     3259.7716650    0.169D-03 0.486D-11
                            Exc = -172.726901165      Eck =  3432.49856621    
                              N = 162.00000447    
                            current damping = 0.300
 
          Norm of current diis error: 0.19268E-03
          max. resid. norm for Fia-block=  1.152D-05 for orbital     81a         
          max. resid. fock norm         =  1.892D-05 for orbital     41a         

 ITERATION  ENERGY          1e-ENERGY        2e-ENERGY     NORM[dD(SAO)]  TOL
   8  -4011.7255877746    -8982.1356355     3259.7709452    0.384D-04 0.476D-11
                            Exc = -172.726911367      Eck =  3432.49785652    
                              N = 162.00000446    
                            current damping = 0.350
 
          Norm of current diis error: 0.81598E-04
          max. resid. norm for Fia-block=  4.853D-06 for orbital     81a         
          max. resid. fock norm         =  1.091D-05 for orbital    222a         

 ENERGY CONVERGED !

          Overall gridpoints after grid construction =        372367

 ITERATION  ENERGY          1e-ENERGY        2e-ENERGY     NORM[dD(SAO)]  TOL
   9  -4011.7255840520    -8982.1358036     3259.7711169    0.127D-04 0.468D-11
                            Exc = -172.726911802      Eck =  3432.49802874    
                              N = 161.99999773    
                            current damping = 0.400
 
          Norm of current diis error: 0.46678E-04
          max. resid. norm for Fia-block=  1.450D-06 for orbital     81a         
          max. resid. fock norm         =  2.256D-06 for orbital    223a         

 End of SCF iterations

   convergence criteria satisfied after     9 iterations


                  ------------------------------------------ 
                 |  total energy      =  -4011.72558405204  |
                  ------------------------------------------ 
                 :  kinetic energy    =   4002.30184787984  :
                 :  potential energy  =  -8014.02743193188  :
                 :  virial theorem    =      1.99765095195  :
                 :  wavefunction norm =      1.00000000000  :
                  .......................................... 


 <geterg> : there is no data group $energy 


 orbitals $scfmo  will be written to file mos

    irrep                 77a         78a         79a         80a         81a   
 eigenvalues H         -0.16864    -0.16307    -0.12872    -0.11925    -0.07382
            eV          -4.5890     -4.4375     -3.5028     -3.2451     -2.0087
 occupation              2.0000      2.0000      2.0000      2.0000      2.0000 

    irrep                 82a         83a         84a         85a         86a   
 eigenvalues H          0.01723     0.10841     0.11881     0.12774     0.13562
            eV           0.4690      2.9501      3.2330      3.4761      3.6905
 
 
 
 
 ==============================================================================
                           electrostatic moments
 ==============================================================================

 reference point for electrostatic moments:    0.00000   0.00000   0.00000

 
              nuc           elec       ->  total
 ------------------------------------------------------------------------------
                          charge      
 ------------------------------------------------------------------------------
         161.000000    -162.000000      -1.000000
 
 ------------------------------------------------------------------------------
                       dipole moment  
 ------------------------------------------------------------------------------
   x    -632.922863     637.981788       5.058925
   y     777.139281    -783.296363      -6.157083
   z       0.620641      -0.630632      -0.009992
 
   | dipole moment | =     7.9688 a.u. =    20.2548 debye 
 
 ------------------------------------------------------------------------------
                     quadrupole moment
 ------------------------------------------------------------------------------
  xx    7675.132152   -7849.720714    -174.588562
  yy    5800.548109   -5937.201871    -136.653762
  zz       5.701157     -98.510305     -92.809148
  xy   -4803.502080    4838.318063      34.815982
  xz      -6.194326       6.220862       0.026536
  yz       9.333462      -9.417160      -0.083697
 
     1/3  trace=    -134.683824
     anisotropy=      93.065122
 
 ==============================================================================
 


    ------------------------------------------------------------------------
         total  cpu-time :  1 minutes and  6 seconds
         total wall-time :  1 minutes and  6 seconds
    ------------------------------------------------------------------------

   ****  ridft : all done  ****


    2018-02-09 15:54:23.275 


 egrad (missouri) : TURBOMOLE V7.2 ( 21454 ) 4 Oct 2017 at 12:24:43
 Copyright (C) 2017 TURBOMOLE GmbH, Karlsruhe


    2018-02-09 15:54:23.294 




                               e g r a d

                             TURBOMOLE GmbH


             integral direct evaluation of excited state
                     and polarizability gradients
                 and first-order nonadiabatic couplings



          references (see also programs escf, dscf and ridft) 

          review 
          F. Furche and D. Rappoport,  
          "Density functional methods for excited states: 
          equilibrium structure and electronic spectra",
          ch. III of "Computational Photochemistry", ed. by 
          M. Olivucci, vol. 16 of "Theoretical and Computational 
          Chemistry", Elsevier, Amsterdam, 2005.

          nonorthonormal Krylov space methods 
          F. Furche, B. T. Krull, B. D. Nguyen, J. Kwon, 
          J. Chem. Phys. 144 (2016), 174105.

          RI-J method 
          D. Rappoport and F. Furche, 
          J. Chem. Phys. 122 (2005), 064105.

          Lagrangian method, implementation, benchmarks 
          F. Furche and R. Ahlrichs,
          J. Chem. Phys. 117 (2002), 7433;
          J. Chem. Phys. 121 (2004), 12772 (E).

          Polarizability derivatives, Raman intensities 
          D. Rappoport and F. Furche, 
          J. Chem. Phys. 126 (2007), 201104.

          First-order nonadiabatic couplings 
          R. Send and F. Furche, 
          J. Chem. Phys. 132 (2010), 044107.
                                     




              +--------------------------------------------------+
              | Atomic coordinate, charge and isotop information |
              +--------------------------------------------------+

                    atomic coordinates            atom    charge  isotop
        -12.81047757    6.80212618    0.00746768    o      8.000     0
        -10.86529784    5.50125868    0.00327616    c      6.000     0
         -8.33158310    6.65900821    0.01166128    c      6.000     0
         -6.09569521    5.18836652    0.00763599    c      6.000     0
         -6.19861300    2.52784686   -0.00240255    c      6.000     0
         -8.59903338    1.37083191   -0.00759334    c      6.000     0
        -10.80579783    2.77175996   -0.00720334    c      6.000     0
         -3.01930400    6.22318142    0.01068549    s     16.000     0
         -2.04242817    3.03646178   -0.00368140    c      6.000     0
         -3.85966134    1.36097818   -0.01017070    n      7.000     0
          0.62968754    2.55439693   -0.00458365    c      6.000     0
          1.62252107   -0.65347050   -0.01548640    s     16.000     0
          2.37460314    4.31040872    0.00446787    n      7.000     0
          4.78163948    3.37142441    0.00156520    c      6.000     0
          4.85432463    0.44109219   -0.00500353    c      6.000     0
          5.88485303   -0.23769556    1.67758408    h      1.000     0
          5.87971800   -0.22308594   -1.69214820    h      1.000     0
          6.72661444    4.59773971    0.01117757    o      8.000     0
         -8.16904864   10.16871635    0.01911437    br    35.000     0
         -8.67194987   -0.69545087   -0.01906944    h      1.000     0
        -12.64716089    1.84174576   -0.00918144    h      1.000     0
 
       center of nuclear mass  :   -4.07652706    5.04313840    0.00448740
       center of nuclear charge:   -3.93119790    4.82695205    0.00385491

              +--------------------------------------------------+
              |               basis set information              |
              +--------------------------------------------------+

              we will work with the 1s 3p 5d 7f 9g ... basis set
              ...i.e. with spherical basis functions...

   type   atoms  prim   cont   basis
   ---------------------------------------------------------------------------
    o        2     24     14   def2-SV(P)   [3s2p1d|7s4p1d]
    c       10     24     14   def2-SV(P)   [3s2p1d|7s4p1d]
    s        2     36     18   def2-SV(P)   [4s3p1d|10s7p1d]
    n        2     24     14   def2-SV(P)   [3s2p1d|7s4p1d]
    h        4      4      2   def2-SV(P)   [2s|4s]
    br       1     74     32   def2-SV(P)   [5s4p3d|14s10p6d]
   ---------------------------------------------------------------------------
   total:   21    498    272
   ---------------------------------------------------------------------------

   total number of primitive shells          :   88
   total number of contracted shells         :  120
   total number of cartesian basis functions :  291
   total number of SCF-basis functions       :  272


 residuum convergence criterium   :  0.10E-04


 integral neglect threshold       :  0.11E-10
 integral storage threshold THIZE :  0.10E-04
 integral storage threshold THIME :         5

 
             FOUND RI-J FLAG !
 
  
 AUXILIARY BASIS SET information:

              we will work with the 1s 3p 5d 7f 9g ... basis set
              ...i.e. with spherical basis functions...

   type   atoms  prim   cont   basis
   ---------------------------------------------------------------------------
    o        2     70     49   def2-SV(P)   [6s4p3d1f1g|12s5p4d2f1g]
    c       10     70     49   def2-SV(P)   [6s4p3d1f1g|12s5p4d2f1g]
    s        2     77     51   def2-SV(P)   [8s4p3d1f1g|14s5p5d2f1g]
    n        2     70     49   def2-SV(P)   [6s4p3d1f1g|12s5p4d2f1g]
    h        4     16     11   def2-SV(P)   [3s1p1d|5s2p1d]
    br       1     89     58   def2-SV(P)   [8s4p3d2f1g|19s5p5d3f1g]
   ---------------------------------------------------------------------------
   total:   21   1287    890
   ---------------------------------------------------------------------------

   total number of primitive shells          :  140
   total number of contracted shells         :  282
   total number of cartesian basis functions : 1101
   total number of SCF-basis functions       :  890

 RPA SINGLET-EXCITATION-CALCULATION 
 
             FOUND DFT-FLAG !
 

 symmetry group of the molecule :   c1 

 the group has the following generators :
   c1(z)

    1 symmetry operations found

 there are 1 real representations :   a   

 maximum number of shells which are related by symmetry :  1

 IRREP of excited state :   a   
 

 determining totally symmetric integral contributions 
    - equivalent to irreducible tensor elements - 
 which can be formed within each triple of representations :

             representation triple      contributions

              a     a     a               1

    mo occupation :
   irrep   mo's   occupied
    a      272       81
 
 number of basis functions   :                    272
 number of occupied orbitals :                     81
 
  
           ------------------
           density functional
           ------------------
 PBE0 hybrid functional
 exchange:    3/4 (LDA+PBE) + 1/4 HF
 correlation: LDA (PW) + PBE

 iterations will be done with small grid
  
 spherical integration : Lebedev's spherical grid
 spherical gridsize    :                     5
    i.e. gridpoints    :                   590
 value for diffuse not defined
 radial integration    : Chebyshev 2nd kind (scaling 3)
 radial gridsize       :                     8
 integration cells     :                    21
 partition function    : becke
 partition sharpness   :                     3
  
  
           ----------------------
               RI - INFORMATION
           ----------------------

 biggest AO integral is expected to be    21.668154127

 Threshold for integral neglect (rithr2):   0.11E-10
 Threshold for integral neglect (rithr1):   0.11E-10

 Contributions to RI integral batches: 
  neglected integral batches:                  2115
  direct contribution:                            0
  memory contribution:                  5145
 Core memory available (ricore)            5000 MiB
 Core memory needed for (P|Q) and Cholesky 7 MiB
 Core memory used for integrals            250 MiB
  
 ****************************************
 Memory allocated for RIDFT 257 MiB
 ****************************************
                                            
  MOs are in ASCII format !


 reading orbital data $scfmo  from file mos
 orbital characterization : scfconv=7
 preparing numerical integration ....
          Overall gridpoints after grid construction =        122130

 Calculating ground state density on molecular grid

 Integral of ground state density: N =   162.0000044645166    



 number of non-frozen orbitals          :   272
 number of non-frozen occupied orbitals :    81



                        -------------------
                         excitation vector 
                        -------------------


 dimension of super-tensorspace: 2

          IRREP   tensor space dimension   number of roots

           a             15471                   1

 maximum number of Davidson iterations set to   25


 machine precision: 2.22D-16


 logfile sing_a    will be constructed


                       Nonorthonormal Krylov Space Iteration


 total number of roots to be determined:   1


 maximum core memory set to  5000 MB,
 corresponding to     3796 vectors in CAO basis


 maximum number of simultaneously treated vectors (including degeneracy):        2


 Iteration IRREP Converged      Max. Euclidean
                 roots          residual norm

    1       a        0        3.024704390838835D-02
 
    2       a        0        4.827163107942480D-02
 
    3       a        0        5.011073184687897D-02
 
    4       a        0        2.173756215774550D-02
 
    5       a        0        7.688608443242783D-03
 
    6       a        0        3.338887336003842D-03
 
    7       a        0        1.565053634274485D-03
 
    8       a        0        6.997399341211205D-04
 
    9       a        0        2.941082522173849D-04
 
   10       a        0        1.151872459034378D-04
 
   11       a        0        6.347915511069098D-05
 
   12       a        0        1.946005328068589D-05
 
   13       a        1        8.366438459727504D-06
 

 converged!


 Switching to fine grid

 preparing numerical integration ....
          Overall gridpoints after grid construction =        372367

 Calculating ground state density on molecular grid

 Integral of ground state density: N =   161.9999977328368    



 Iteration IRREP Converged      Max. Euclidean
                 roots          residual norm

   14       a        0        1.055701811438610D-05
 

 NOTE: Residual norms are larger than 1.00D-05 due to mgrid option!

 Eigenpairs written on logfile sing_a   



 IRREP   Vector     Eigenvalue           Euclidean residual norm

  a         1    8.338973226103996D-02    1.055701811438610D-05
 




                    Selection rules for point group c1  


 Subduction with respect to c1  :

    Polar vector representation: a                           

    Axial vector representation: a                           

    Symmetric second rank tensor representation: a                           




                            Ground state


 Total energy:                           -4011.725584052000    

 Charge:

               elec          nuc         total

          -162.000000   161.000000    -1.000000


 Electric dipole moment:

               elec          nuc         total   

    x      637.981788  -632.922863     5.058925    Norm:              7.968845
    y     -783.296363   777.139281    -6.157083
    z       -0.630632     0.620641    -0.009992    Norm / debye:     20.254937


 Electric quadrupole moment:

               elec          nuc         total   

   xx    -7849.720714  7675.132152  -174.588562
   yy    -5937.201871  5800.548109  -136.653762    1/3*trace:      -134.683824
   zz      -98.510305     5.701157   -92.809148
   xy     4838.318063 -4803.502080    34.815982
   xz        6.220862    -6.194326     0.026536    Anisotropy:       93.065122
   yz       -9.417160     9.333462    -0.083697



 ==============================================================================

                              I R R E P   a   

 ==============================================================================


 Excitation is electric dipole allowed

 Excitation is magnetic dipole allowed

 Excitation is electric quadrupole allowed




                         1 singlet a excitation


 Total energy:                           -4011.642194319739    

 Excitation energy:                      0.8338973226103996E-01

 Excitation energy / eV:                  2.269151041065388    

 Excitation energy / nm:                  546.3904418996125    

 Excitation energy / cm^(-1):             18301.93069216362    


 Oscillator strength:

    velocity representation:             0.3090899371828965    

    length representation:               0.3606334048474075    

    mixed representation:                0.3338622743140469    


 Rotatory strength:

    velocity representation:             0.4433265958053000E-05

    velocity rep. / 10^(-40)erg*cm^3:    0.2864103333000921    

    length representation:               0.4391328551674645E-05

    length rep. / 10^(-40)erg*cm^3:      0.2837009748604642    


 Dominant contributions:

      occ. orbital   energy / eV   virt. orbital     energy / eV   |coeff.|^2*100
       81 a              -2.01          82 a               0.47       91.7
 

 Change of electron number:

             0.000000


 Electric transition dipole moment (velocity rep.):

    x       -2.317669        Norm:                  2.357935
    y        0.433894
    z        0.001315        Norm / debye:          5.993317


 Electric transition dipole moment (length rep.):

    x       -2.500567        Norm:                  2.546961
    y        0.483915
    z        0.000961        Norm / debye:          6.473778


 Magnetic transition dipole moment / i:

    x       -0.000000        Norm:                  0.001077
    y        0.000006
    z        0.001077        Norm / Bohr mag.:      0.295162


 Electric quadrupole transition moment:

   xx       18.773044
   yy        4.449100        1/3*trace:             7.703772
   zz       -0.110828
   xy      -11.282341
   xz       -0.006367        Anisotropy:           25.945295
   yz        0.005801
 

 Excited state no.    1 chosen for optimization


                       ----------------------
                        CPKS right-hand side 
                       ----------------------


          IRREP   tensor space dimension   number of roots

           a             15471                   1

                          ----------------
                           CPKS equations 
                          ----------------


 logfile dipl_a    will be constructed

 Switching to coarse grid

 preparing numerical integration ....
          Overall gridpoints after grid construction =        122130


                       Nonorthonormal Krylov Space Iteration


 total number of roots to be determined:   1


 maximum core memory set to  5000 MB,
 corresponding to     7544 vectors in CAO basis


 maximum number of simultaneously treated vectors (including degeneracy):        1


 Iteration IRREP Converged      Max. Euclidean
                 roots          residual norm

    1       a        0        1.088750729650042D-01
 
    2       a        0        4.865720626002842D-02
 
    3       a        0        2.234205872191432D-02
 
    4       a        0        9.435423408095108D-03
 
    5       a        0        3.550839622407253D-03
 
    6       a        0        1.239186821813945D-03
 
    7       a        0        4.773478770362746D-04
 
    8       a        0        1.641834997284738D-04
 
    9       a        0        8.221672987132707D-05
 
   10       a        0        1.919931952507472D-05
 
   11       a        1        8.120300117074352D-06
 

 converged!


 Switching to fine grid

 preparing numerical integration ....
          Overall gridpoints after grid construction =        372367

 Iteration IRREP Converged      Max. Euclidean
                 roots          residual norm

   12       a        0        1.628731565444993D-05
 

 NOTE: Residual norms are larger than 1.00D-05 due to mgrid option!

 Eigenpairs written on logfile dipl_a   



 IRREP   Vector     Frequency            Euclidean residual norm

  a         1    0.000000000000000D+00    1.628731565444993D-05
 

                          -------------------
                           relaxed densities 
                          -------------------


    ----------------------------------------
     S+T+V CONTRIBUTIONS TO ENERGY GRADIENT 
    ----------------------------------------

 1e-integral 1st. derivatives will be neglected if expon. factor < 0.100000E-10


    -----------------------------------------------
     TWO ELECTRON CONTRIBUTIONS TO ENERGY GRADIENT 
    -----------------------------------------------

 setting up bound for integral derivative estimation

 increment for numerical differentiation : 0.00050000

 biggest AO integral is expected to be    21.668154127
 biggest cartesian 1st derivative AO integral is expected to be    83.347447328

 biggest 1-particle AO density matrix element is expected to be    3.2070876126

 core memory to be involved in 2e-gradient :
   symmetry shell pair data              :         1
   two particle density+dens. estimates  :      8556
   derivative integrals                  :      8498
   derivative integral bound             :     21780
   totally                               :     30276


 setting up bound for integral derivative estimation

 increment for numerical differentiation : 0.00050000

 biggest AO integral is expected to be    21.668154127
 biggest cartesian 1st derivative AO integral is expected to be    83.347447328

 2e-integral 1st. derivatives will be neglected if expon. factor < 0.100000E-06
 outer boundary for 2e-integral derivative neglection is 0.162042E-08

 Integrated ground state density     :   161.9999977328353    


          ------------------------------------------------
           cartesian gradient of the energy (hartree/bohr)
          ------------------------------------------------

  ATOM      1 o           2 c           3 c           4 c           5 c 
dE/dx -0.1247729D-03  0.1674851D-02 -0.7189292D-03  0.1213859D-02 -0.8266869D-03
dE/dy -0.1102504D-03 -0.1441602D-02 -0.1330136D-02 -0.3582330D-03 -0.1563984D-02
dE/dz  0.6843403D-04 -0.1793468D-03  0.1727600D-03 -0.4729675D-04  0.7319560D-04

  ATOM      6 c           7 c           8 s           9 c          10 n 
dE/dx  0.7599912D-03 -0.2361218D-02 -0.4678531D-03 -0.6704633D-03 -0.1176000D-02
dE/dy  0.2959132D-03  0.5768915D-03  0.4578266D-03  0.4373217D-03  0.5573169D-03
dE/dz  0.3239628D-03 -0.2404587D-03  0.2836632D-04 -0.4387438D-04 -0.8284132D-04

  ATOM     11 c          12 s          13 n          14 c          15 c 
dE/dx  0.8431316D-03  0.5810893D-04  0.5179047D-03  0.1902027D-02  0.9217532D-03
dE/dy  0.3675076D-03 -0.4525112D-03  0.5849829D-03 -0.2705361D-03 -0.4068173D-03
dE/dz -0.6013055D-04 -0.1679716D-03  0.2309170D-03 -0.6941014D-03 -0.3272062D-03

  ATOM     16 h          17 h          18 o          19 br         20 h 
dE/dx  0.6460435D-04 -0.7955494D-03 -0.2199146D-02  0.2184993D-04  0.9979852D-05
dE/dy -0.5394389D-04  0.4519944D-03 -0.3624407D-03  0.1218328D-02  0.7242183D-03
dE/dz  0.3569496D-05  0.8275458D-03  0.1945705D-03 -0.5622547D-04 -0.1137143D-03

  ATOM     21 h 
dE/dx  0.1339809D-02
dE/dy  0.6641622D-03
dE/dz  0.8975064D-04
 
 resulting FORCE  (fx,fy,fz) = (-.127D-04,-.140D-04,-.953D-07)
 resulting MOMENT (mx,my,mz) = (0.119D-05,0.191D-05,0.823D-04)


 **********************************************************************
  |maximum component of gradient| : 0.23612183E-02  (atom  7 c )       
   gradient norm                  : 0.62737615E-02
 **********************************************************************

 exx =      -0.007460 eyy =      -0.002391 ezz =      -0.001385
 eyz =      -0.000875 exz =       0.001441 exy =      -0.000323


 <getgrd> : data group $grad  is missing 

   ***  cartesian gradients written onto <gradient>  ***
 
 
 
 ==============================================================================
                           electrostatic moments
 ==============================================================================

 reference point for electrostatic moments:    0.00000   0.00000   0.00000

 
              nuc           gs,e       ->  gs,tot          excit     ->  total
 ------------------------------------------------------------------------------
                          charge      
 ------------------------------------------------------------------------------
         161.000000    -162.000000      -1.000000       0.000000      -1.000000
 
 ------------------------------------------------------------------------------
                       dipole moment  
 ------------------------------------------------------------------------------
   x    -632.922863     637.981788       5.058925      -1.251941       3.806985
   y     777.139281    -783.296363      -6.157083       1.270603      -4.886480
   z       0.620641      -0.630632      -0.009992       0.004247      -0.005745
 
   | dipole moment | =     6.1944 a.u. =    15.7446 debye 
 
 ------------------------------------------------------------------------------
                     quadrupole moment
 ------------------------------------------------------------------------------
  xx    7675.132152   -7849.720714    -174.588562       2.146574    -172.441988
  yy    5800.548109   -5937.201871    -136.653762      13.567451    -123.086311
  zz       5.701157     -98.510305     -92.809148       0.198096     -92.611052
  xy   -4803.502080    4838.318063      34.815982     -12.175796      22.640186
  xz      -6.194326       6.220862       0.026536      -0.031380      -0.004844
  yz       9.333462      -9.417160      -0.083697       0.028908      -0.054789
 
     1/3  trace=    -129.379784
     anisotropy=      80.041205
 
 ==============================================================================
 


    ------------------------------------------------------------------------
         total  cpu-time :  5 minutes and 42 seconds
         total wall-time :  5 minutes and 42 seconds
    ------------------------------------------------------------------------

   ****  egrad : all done  ****


    2018-02-09 16:00:05.147 

$dipole from egrad
  x     3.80698457990593    y    -4.88647968186058    z    -0.00574482049543    a.u.
   | dipole | =   15.7447660386  debye
/work/bdnguye2/luc_project/7_brluc/ex_geo_opt/save/numforce/KraftWerk/p035
