 operating system is UNIX !

 ridft (missouri) : TURBOMOLE V7.2 ( 21454 ) 4 Oct 2017 at 12:48:15
 Copyright (C) 2017 TURBOMOLE GmbH, Karlsruhe


    2018-02-09 16:00:05.191 



                                  r i d f t

                        DFT program with RI approximation 
                                for coulomb part 




                                                 
                                 References:     
                                                 
          TURBOMOLE:                             
              R. Ahlrichs, M. Baer, M. Haeser, H. Horn, and
              C. Koelmel
              Electronic structure calculations on workstation
              computers: the program system TURBOMOLE
              Chem. Phys. Lett. 162: 165 (1989)
          Density Functional:                              
              O. Treutler and R. Ahlrichs                      
              Efficient Molecular Numerical Integration Schemes
              J. Chem. Phys. 102: 346 (1995)                   
          Parallel Version:                                
              Performance of parallel TURBOMOLE for Density    
              Functional Calculations                          
              M. v. Arnim and R. Ahlrichs                      
              J. Comp. Chem. 19: 1746 (1998)                   
          RI-J Method:                                     
              Auxiliary Basis Sets to approximate Coulomb      
              Potentials                                       
              Chem. Phys. Lett. 240: 283 (1995)                
              K. Eichkorn, O. Treutler, H. Oehm, M. Haeser     
              and R. Ahlrichs                                  
              Chem. Phys. Lett. 242: 652 (1995)                
                                                           
              Auxiliary Basis Sets for Main Row Atoms and their
              Use to approximate Coulomb Potentials            
              K. Eichkorn, F. Weigend, O. Treutler and         
              R. Ahlrichs                                      
              Theo. Chem. Acc. 97: 119 (1997)                   
                                                           
              Accurate Coulomb-fitting basis sets for H to Rn 
              F. Weigend                                        
              Phys. Chem. Chem. Phys. 8: 1057 (2006)            
                                                           
          Multipole accelerated RI-J (MARI-J):             
              Fast evaluation of the Coulomb potential for     
              electron densities using multipole accelerated   
              resolution of identity approximation             
              M. Sierka, A. Hogekamp and R. Ahlrichs           
              J. Chem. Phys. 118: 9136 (2003)                  
          RI-JK Method:                                     
              A fully direct RI-HF algorithm: Implementation,
              optimised auxiliary basis sets, demonstration of
              accuracy and efficiency                         
              F. Weigend                                      
              Phys. Chem. Chem. Phys. 4: 4285 (2002)           
          Two-component HF and DFT with spin-orbit coupling:  
              Self-consistent treatment of spin-orbit         
              interactions with efficient Hartree-Fock and    
              density functional methods                      
              M. K. Armbruster, F. Weigend, C. van Wüllen and 
              W. Klopper                                      
              Phys. Chem. Chem. Phys. 10: 1748 (2008)         
          Relativistic all-electron 2c calculations           
              An efficient implementation of two-component    
              relativistic exact-decoupling methods for large 
              molecules                                       
              D. Peng, N. Middendorf, F. Weigend, M. Reiher   
              J. Chem. Phys. 138, 184105 (2013)               
                                         




              +--------------------------------------------------+
              |      general information about current run       |
              +--------------------------------------------------+

 
 PBE0 hybrid functional
 exchange:    3/4 (LDA+PBE) + 1/4 HF
 correlation: LDA (PW) + PBE
 A Hybrid-DFT calculation using the RI-J approximation will be carried out.
 Allocatable memory for RI due to $ricore (MB):                  5000


              +--------------------------------------------------+
              | Atomic coordinate, charge and isotop information |
              +--------------------------------------------------+

                    atomic coordinates            atom    charge  isotop
        -12.81062565    6.80195224    0.00805290    o      8.000     0
        -10.86565260    5.50168553    0.00433049    c      6.000     0
         -8.33312924    6.65936110    0.01153136    c      6.000     0
         -6.09771886    5.19081655    0.00787235    c      6.000     0
         -6.19934476    2.53063739   -0.00541691    c      6.000     0
         -8.60036774    1.37284742   -0.01068971    c      6.000     0
        -10.80277938    2.77450123   -0.01067748    c      6.000     0
         -3.01653347    6.22083017    0.00651059    s     16.000     0
         -2.03762354    3.03469363   -0.00264402    c      6.000     0
         -3.85433461    1.35526947   -0.00998763    n      7.000     0
          0.63045135    2.54847294    0.00136954    c      6.000     0
          1.62428794   -0.65625655   -0.00970112    s     16.000     0
          2.36918500    4.30662925    0.00917339    n      7.000     0
          4.77678065    3.37554771    0.00709005    c      6.000     0
          4.84812239    0.44432789   -0.00723085    c      6.000     0
          5.87814467   -0.23067440    1.67644895    h      1.000     0
          5.87964512   -0.22263517   -1.69301315    h      1.000     0
          6.72632726    4.59836987    0.00996968    o      8.000     0
         -8.16759985   10.16979761    0.01750113    br    35.000     0
         -8.67038753   -0.69698100   -0.02126301    h      1.000     0
        -12.64437485    1.84040408   -0.01422097    h      1.000     0
 
       center of nuclear mass  :   -4.07607340    5.04291341    0.00447008
       center of nuclear charge:   -3.93078820    4.82670450    0.00385797

              +--------------------------------------------------+
              |               basis set information              |
              +--------------------------------------------------+

              we will work with the 1s 3p 5d 7f 9g ... basis set
              ...i.e. with spherical basis functions...

   type   atoms  prim   cont   basis
   ---------------------------------------------------------------------------
    o        2     24     14   def2-SV(P)   [3s2p1d|7s4p1d]
    c       10     24     14   def2-SV(P)   [3s2p1d|7s4p1d]
    s        2     36     18   def2-SV(P)   [4s3p1d|10s7p1d]
    n        2     24     14   def2-SV(P)   [3s2p1d|7s4p1d]
    h        4      4      2   def2-SV(P)   [2s|4s]
    br       1     74     32   def2-SV(P)   [5s4p3d|14s10p6d]
   ---------------------------------------------------------------------------
   total:   21    498    272
   ---------------------------------------------------------------------------

   total number of primitive shells          :   88
   total number of contracted shells         :  120
   total number of cartesian basis functions :  291
   total number of SCF-basis functions       :  272


 integral neglect threshold       :  0.11E-10
 integral storage threshold THIZE :  0.10E-04
 integral storage threshold THIME :         5

 RI-J AUXILIARY BASIS SET information:

              we will work with the 1s 3p 5d 7f 9g ... basis set
              ...i.e. with spherical basis functions...

   type   atoms  prim   cont   basis
   ---------------------------------------------------------------------------
    o        2     70     49   def2-SV(P)   [6s4p3d1f1g|12s5p4d2f1g]
    c       10     70     49   def2-SV(P)   [6s4p3d1f1g|12s5p4d2f1g]
    s        2     77     51   def2-SV(P)   [8s4p3d1f1g|14s5p5d2f1g]
    n        2     70     49   def2-SV(P)   [6s4p3d1f1g|12s5p4d2f1g]
    h        4     16     11   def2-SV(P)   [3s1p1d|5s2p1d]
    br       1     89     58   def2-SV(P)   [8s4p3d2f1g|19s5p5d3f1g]
   ---------------------------------------------------------------------------
   total:   21   1287    890
   ---------------------------------------------------------------------------

   total number of primitive shells          :  140
   total number of contracted shells         :  282
   total number of cartesian basis functions : 1101
   total number of SCF-basis functions       :  890


 symmetry group of the molecule :   c1 

 the group has the following generators :
   c1(z)

    1 symmetry operations found

 there are 1 real representations :   a   

 maximum number of shells which are related by symmetry :  1


    mo occupation :
   irrep   mo's   occupied
    a      272       81
 
 number of basis functions   :                    272
 number of occupied orbitals :                     81
 
  
           ------------------
           density functional
           ------------------
 PBE0 hybrid functional
 exchange:    3/4 (LDA+PBE) + 1/4 HF
 correlation: LDA (PW) + PBE

 iterations will be done with small grid
  
 spherical integration : Lebedev's spherical grid
 spherical gridsize    :                     5
    i.e. gridpoints    :                   590
 value for diffuse not defined
 radial integration    : Chebyshev 2nd kind (scaling 3)
 radial gridsize       :                     8
 integration cells     :                    21
 partition function    : becke
 partition sharpness   :                     3
  

 biggest AO integral is expected to be    21.668154127
  
           ------------------------
               RI-J - INFORMATION
           ------------------------
 Contributions to RI integral batches: 
  neglected integral batches:                  2258
  direct contribution:                            0
  memory contribution:                  5002
 Memory core needed for (P|Q) and Cholesky      7 MByte
 Memory core minimum needed except of (P|Q)     1 MByte
 Total minimum memory core needed (sum)         7 MByte
  
 ****************************************
 Memory allocated for RI-J   249 MByte
 ****************************************
                                            

          ------------------------
          nuclear repulsion energy  :   1710.69372996    
          ------------------------


         -----------------
         -S,T+V- integrals
         -----------------

 1e-integrals will be neglected if expon. factor < 0.114844E-11
 
   Difference densities algorithm switched on.
   The maximal number of linear combinations of
   difference densities is                    20 .

 DIIS switched on: error vector is FDS-SDF
 Max. Iterations for DIIS is     :   4
 DIIS matrix (see manual) 
    Scaling factor of diagonals  :  1.200
    threshold for scaling factor :  0.000

 scf convergence criterion : increment of total energy < .1000000D-06
                  and increment of one-electron energy < .1000000D-03

  MOs are in ASCII format !


 automatic virtual orbital shift switched on 
      shift if e(lumo)-e(homo) < 0.10000000    


 reading orbital data $scfmo  from file mos
 orbital characterization : scfconv=7

 dump of DSCF restart information has been disabled !


 Starting SCF iterations

          Overall gridpoints after grid construction =        122133

 ITERATION  ENERGY          1e-ENERGY        2e-ENERGY     NORM[dD(SAO)]  TOL
   1  -4011.7254748700    -8982.2361903     3259.8169854    0.000D+00 0.115D-10
                            Exc = -172.726681018     Coul =  3488.20288350    
                            exK = -55.6592170467    
                              N = 162.00000361    
                            current damping = 0.700
 
          max. resid. norm for Fia-block=  2.974D-03 for orbital      1a         
          max. resid. fock norm         =  5.836D-03 for orbital    199a         

 ITERATION  ENERGY          1e-ENERGY        2e-ENERGY     NORM[dD(SAO)]  TOL
   2  -4011.7255030464    -8982.2370244     3259.8177914    0.212D-01 0.726D-11
                            Exc = -172.726485903      Eck =  3432.54427733    
                              N = 162.00000354    
                            current damping = 0.650
 
          Norm of current diis error: 0.60075E-02
          max. resid. norm for Fia-block=  1.225D-03 for orbital      1a         
          max. resid. fock norm         =  2.401D-03 for orbital    262a         

 ITERATION  ENERGY          1e-ENERGY        2e-ENERGY     NORM[dD(SAO)]  TOL
   3  -4011.7255081243    -8982.2419986     3259.8227605    0.606D-02 0.566D-11
                            Exc = -172.727010471      Eck =  3432.54977101    
                              N = 162.00000355    
                            current damping = 0.500
 
          Norm of current diis error: 0.43045E-02
          max. resid. norm for Fia-block=  4.826D-04 for orbital      1a         
          max. resid. fock norm         =  8.716D-04 for orbital      1a         

 ITERATION  ENERGY          1e-ENERGY        2e-ENERGY     NORM[dD(SAO)]  TOL
   4  -4011.7255109638    -8982.2396705     3259.8204295    0.170D-02 0.519D-11
                            Exc = -172.726775816      Eck =  3432.54720535    
                              N = 162.00000353    
                            current damping = 0.550
 
          Norm of current diis error: 0.13288E-02
          max. resid. norm for Fia-block=  1.610D-04 for orbital      1a         
          max. resid. fock norm         =  3.090D-04 for orbital    262a         

 ITERATION  ENERGY          1e-ENERGY        2e-ENERGY     NORM[dD(SAO)]  TOL
   5  -4011.7255111999    -8982.2402674     3259.8210263    0.126D-02 0.501D-11
                            Exc = -172.726700605      Eck =  3432.54772689    
                              N = 162.00000353    
                            current damping = 0.600
 
          Norm of current diis error: 0.84237E-03
          max. resid. norm for Fia-block=  5.823D-05 for orbital     81a         
          max. resid. fock norm         =  1.062D-04 for orbital    262a         
          mo-orthogonalization: Cholesky decomposition

 ITERATION  ENERGY          1e-ENERGY        2e-ENERGY     NORM[dD(SAO)]  TOL
   6  -4011.7255115614    -8982.2397698     3259.8205283    0.412D-03 0.488D-11
                            Exc = -172.726799454      Eck =  3432.54732777    
                              N = 162.00000354    
                            current damping = 0.650
 
          Norm of current diis error: 0.24942E-03
          max. resid. norm for Fia-block=  2.140D-05 for orbital      1a         
          max. resid. fock norm         =  4.961D-05 for orbital    200a         

 ITERATION  ENERGY          1e-ENERGY        2e-ENERGY     NORM[dD(SAO)]  TOL
   7  -4011.7255115709    -8982.2405045     3259.8212630    0.161D-03 0.479D-11
                            Exc = -172.726780435      Eck =  3432.54804341    
                              N = 162.00000355    
                            current damping = 0.700
 
          Norm of current diis error: 0.14924E-03
          max. resid. norm for Fia-block=  9.964D-06 for orbital     81a         
          max. resid. fock norm         =  2.057D-05 for orbital    199a         

 ENERGY CONVERGED !

          Overall gridpoints after grid construction =        372356

 ITERATION  ENERGY          1e-ENERGY        2e-ENERGY     NORM[dD(SAO)]  TOL
   8  -4011.7255084976    -8982.2401484     3259.8209099    0.490D-04 0.470D-11
                            Exc = -172.726770757      Eck =  3432.54768067    
                              N = 161.99999764    
                            current damping = 0.750
 
          Norm of current diis error: 0.60279E-04
          max. resid. norm for Fia-block=  3.959D-06 for orbital     80a         
          max. resid. fock norm         =  9.136D-06 for orbital    262a         

 End of SCF iterations

   convergence criteria satisfied after     8 iterations


                  ------------------------------------------ 
                 |  total energy      =  -4011.72550849758  |
                  ------------------------------------------ 
                 :  kinetic energy    =   4002.30230574300  :
                 :  potential energy  =  -8014.02781424058  :
                 :  virial theorem    =      1.99765108487  :
                 :  wavefunction norm =      1.00000000000  :
                  .......................................... 


 <geterg> : there is no data group $energy 


 orbitals $scfmo  will be written to file mos

    irrep                 77a         78a         79a         80a         81a   
 eigenvalues H         -0.16873    -0.16327    -0.12885    -0.11931    -0.07391
            eV          -4.5914     -4.4430     -3.5062     -3.2467     -2.0113
 occupation              2.0000      2.0000      2.0000      2.0000      2.0000 

    irrep                 82a         83a         84a         85a         86a   
 eigenvalues H          0.01702     0.10861     0.11892     0.12798     0.13541
            eV           0.4631      2.9555      3.2361      3.4826      3.6847
 
 
 
 
 ==============================================================================
                           electrostatic moments
 ==============================================================================

 reference point for electrostatic moments:    0.00000   0.00000   0.00000

 
              nuc           elec       ->  total
 ------------------------------------------------------------------------------
                          charge      
 ------------------------------------------------------------------------------
         161.000000    -162.000000      -1.000000
 
 ------------------------------------------------------------------------------
                       dipole moment  
 ------------------------------------------------------------------------------
   x    -632.856901     637.916267       5.059366
   y     777.099424    -783.256151      -6.156727
   z       0.621133      -0.630033      -0.008900
 
   | dipole moment | =     7.9688 a.u. =    20.2548 debye 
 
 ------------------------------------------------------------------------------
                     quadrupole moment
 ------------------------------------------------------------------------------
  xx    7672.880687   -7847.539154    -174.658467
  yy    5800.949027   -5937.600174    -136.651147
  zz       5.696431     -98.504648     -92.808217
  xy   -4803.338447    4838.163752      34.825306
  xz      -4.843624       4.872143       0.028518
  yz       8.542846      -8.621071      -0.078225
 
     1/3  trace=    -134.705944
     anisotropy=      93.121092
 
 ==============================================================================
 


    ------------------------------------------------------------------------
         total  cpu-time :  1 minutes and  6 seconds
         total wall-time :  1 minutes and  6 seconds
    ------------------------------------------------------------------------

   ****  ridft : all done  ****


    2018-02-09 16:01:10.771 


 egrad (missouri) : TURBOMOLE V7.2 ( 21454 ) 4 Oct 2017 at 12:24:43
 Copyright (C) 2017 TURBOMOLE GmbH, Karlsruhe


    2018-02-09 16:01:10.790 




                               e g r a d

                             TURBOMOLE GmbH


             integral direct evaluation of excited state
                     and polarizability gradients
                 and first-order nonadiabatic couplings



          references (see also programs escf, dscf and ridft) 

          review 
          F. Furche and D. Rappoport,  
          "Density functional methods for excited states: 
          equilibrium structure and electronic spectra",
          ch. III of "Computational Photochemistry", ed. by 
          M. Olivucci, vol. 16 of "Theoretical and Computational 
          Chemistry", Elsevier, Amsterdam, 2005.

          nonorthonormal Krylov space methods 
          F. Furche, B. T. Krull, B. D. Nguyen, J. Kwon, 
          J. Chem. Phys. 144 (2016), 174105.

          RI-J method 
          D. Rappoport and F. Furche, 
          J. Chem. Phys. 122 (2005), 064105.

          Lagrangian method, implementation, benchmarks 
          F. Furche and R. Ahlrichs,
          J. Chem. Phys. 117 (2002), 7433;
          J. Chem. Phys. 121 (2004), 12772 (E).

          Polarizability derivatives, Raman intensities 
          D. Rappoport and F. Furche, 
          J. Chem. Phys. 126 (2007), 201104.

          First-order nonadiabatic couplings 
          R. Send and F. Furche, 
          J. Chem. Phys. 132 (2010), 044107.
                                     




              +--------------------------------------------------+
              | Atomic coordinate, charge and isotop information |
              +--------------------------------------------------+

                    atomic coordinates            atom    charge  isotop
        -12.81062565    6.80195224    0.00805290    o      8.000     0
        -10.86565260    5.50168553    0.00433049    c      6.000     0
         -8.33312924    6.65936110    0.01153136    c      6.000     0
         -6.09771886    5.19081655    0.00787235    c      6.000     0
         -6.19934476    2.53063739   -0.00541691    c      6.000     0
         -8.60036774    1.37284742   -0.01068971    c      6.000     0
        -10.80277938    2.77450123   -0.01067748    c      6.000     0
         -3.01653347    6.22083017    0.00651059    s     16.000     0
         -2.03762354    3.03469363   -0.00264402    c      6.000     0
         -3.85433461    1.35526947   -0.00998763    n      7.000     0
          0.63045135    2.54847294    0.00136954    c      6.000     0
          1.62428794   -0.65625655   -0.00970112    s     16.000     0
          2.36918500    4.30662925    0.00917339    n      7.000     0
          4.77678065    3.37554771    0.00709005    c      6.000     0
          4.84812239    0.44432789   -0.00723085    c      6.000     0
          5.87814467   -0.23067440    1.67644895    h      1.000     0
          5.87964512   -0.22263517   -1.69301315    h      1.000     0
          6.72632726    4.59836987    0.00996968    o      8.000     0
         -8.16759985   10.16979761    0.01750113    br    35.000     0
         -8.67038753   -0.69698100   -0.02126301    h      1.000     0
        -12.64437485    1.84040408   -0.01422097    h      1.000     0
 
       center of nuclear mass  :   -4.07607340    5.04291341    0.00447008
       center of nuclear charge:   -3.93078820    4.82670450    0.00385797

              +--------------------------------------------------+
              |               basis set information              |
              +--------------------------------------------------+

              we will work with the 1s 3p 5d 7f 9g ... basis set
              ...i.e. with spherical basis functions...

   type   atoms  prim   cont   basis
   ---------------------------------------------------------------------------
    o        2     24     14   def2-SV(P)   [3s2p1d|7s4p1d]
    c       10     24     14   def2-SV(P)   [3s2p1d|7s4p1d]
    s        2     36     18   def2-SV(P)   [4s3p1d|10s7p1d]
    n        2     24     14   def2-SV(P)   [3s2p1d|7s4p1d]
    h        4      4      2   def2-SV(P)   [2s|4s]
    br       1     74     32   def2-SV(P)   [5s4p3d|14s10p6d]
   ---------------------------------------------------------------------------
   total:   21    498    272
   ---------------------------------------------------------------------------

   total number of primitive shells          :   88
   total number of contracted shells         :  120
   total number of cartesian basis functions :  291
   total number of SCF-basis functions       :  272


 residuum convergence criterium   :  0.10E-04


 integral neglect threshold       :  0.11E-10
 integral storage threshold THIZE :  0.10E-04
 integral storage threshold THIME :         5

 
             FOUND RI-J FLAG !
 
  
 AUXILIARY BASIS SET information:

              we will work with the 1s 3p 5d 7f 9g ... basis set
              ...i.e. with spherical basis functions...

   type   atoms  prim   cont   basis
   ---------------------------------------------------------------------------
    o        2     70     49   def2-SV(P)   [6s4p3d1f1g|12s5p4d2f1g]
    c       10     70     49   def2-SV(P)   [6s4p3d1f1g|12s5p4d2f1g]
    s        2     77     51   def2-SV(P)   [8s4p3d1f1g|14s5p5d2f1g]
    n        2     70     49   def2-SV(P)   [6s4p3d1f1g|12s5p4d2f1g]
    h        4     16     11   def2-SV(P)   [3s1p1d|5s2p1d]
    br       1     89     58   def2-SV(P)   [8s4p3d2f1g|19s5p5d3f1g]
   ---------------------------------------------------------------------------
   total:   21   1287    890
   ---------------------------------------------------------------------------

   total number of primitive shells          :  140
   total number of contracted shells         :  282
   total number of cartesian basis functions : 1101
   total number of SCF-basis functions       :  890

 RPA SINGLET-EXCITATION-CALCULATION 
 
             FOUND DFT-FLAG !
 

 symmetry group of the molecule :   c1 

 the group has the following generators :
   c1(z)

    1 symmetry operations found

 there are 1 real representations :   a   

 maximum number of shells which are related by symmetry :  1

 IRREP of excited state :   a   
 

 determining totally symmetric integral contributions 
    - equivalent to irreducible tensor elements - 
 which can be formed within each triple of representations :

             representation triple      contributions

              a     a     a               1

    mo occupation :
   irrep   mo's   occupied
    a      272       81
 
 number of basis functions   :                    272
 number of occupied orbitals :                     81
 
  
           ------------------
           density functional
           ------------------
 PBE0 hybrid functional
 exchange:    3/4 (LDA+PBE) + 1/4 HF
 correlation: LDA (PW) + PBE

 iterations will be done with small grid
  
 spherical integration : Lebedev's spherical grid
 spherical gridsize    :                     5
    i.e. gridpoints    :                   590
 value for diffuse not defined
 radial integration    : Chebyshev 2nd kind (scaling 3)
 radial gridsize       :                     8
 integration cells     :                    21
 partition function    : becke
 partition sharpness   :                     3
  
  
           ----------------------
               RI - INFORMATION
           ----------------------

 biggest AO integral is expected to be    21.668154127

 Threshold for integral neglect (rithr2):   0.11E-10
 Threshold for integral neglect (rithr1):   0.11E-10

 Contributions to RI integral batches: 
  neglected integral batches:                  2116
  direct contribution:                            0
  memory contribution:                  5144
 Core memory available (ricore)            5000 MiB
 Core memory needed for (P|Q) and Cholesky 7 MiB
 Core memory used for integrals            250 MiB
  
 ****************************************
 Memory allocated for RIDFT 256 MiB
 ****************************************
                                            
  MOs are in ASCII format !


 reading orbital data $scfmo  from file mos
 orbital characterization : scfconv=7
 preparing numerical integration ....
          Overall gridpoints after grid construction =        122133

 Calculating ground state density on molecular grid

 Integral of ground state density: N =   162.0000035455126    



 number of non-frozen orbitals          :   272
 number of non-frozen occupied orbitals :    81



                        -------------------
                         excitation vector 
                        -------------------


 dimension of super-tensorspace: 2

          IRREP   tensor space dimension   number of roots

           a             15471                   1

 maximum number of Davidson iterations set to   25


 machine precision: 2.22D-16


 logfile sing_a    will be constructed


                       Nonorthonormal Krylov Space Iteration


 total number of roots to be determined:   1


 maximum core memory set to  5000 MB,
 corresponding to     3796 vectors in CAO basis


 maximum number of simultaneously treated vectors (including degeneracy):        2


 Iteration IRREP Converged      Max. Euclidean
                 roots          residual norm

    1       a        0        2.988266573512516D-02
 
    2       a        0        1.570632961804632D-02
 
    3       a        0        7.559808137719833D-02
 
    4       a        0        4.190211222088398D-02
 
    5       a        0        1.720125052870945D-02
 
    6       a        0        7.162388061047309D-03
 
    7       a        0        2.942481066959282D-03
 
    8       a        0        1.425050112350897D-03
 
    9       a        0        6.485875766453076D-04
 
   10       a        0        2.843218480728107D-04
 
   11       a        0        9.887518139950717D-05
 
   12       a        0        5.694095568818656D-05
 
   13       a        0        1.731790621317321D-05
 
   14       a        1        8.263642268779427D-06
 

 converged!


 Switching to fine grid

 preparing numerical integration ....
          Overall gridpoints after grid construction =        372356

 Calculating ground state density on molecular grid

 Integral of ground state density: N =   161.9999976354886    



 Iteration IRREP Converged      Max. Euclidean
                 roots          residual norm

   15       a        0        1.032994692147178D-05
 

 NOTE: Residual norms are larger than 1.00D-05 due to mgrid option!

 Eigenpairs written on logfile sing_a   



 IRREP   Vector     Eigenvalue           Euclidean residual norm

  a         1    8.332363393751539D-02    1.032994692147178D-05
 




                    Selection rules for point group c1  


 Subduction with respect to c1  :

    Polar vector representation: a                           

    Axial vector representation: a                           

    Symmetric second rank tensor representation: a                           




                            Ground state


 Total energy:                           -4011.725508498000    

 Charge:

               elec          nuc         total

          -162.000000   161.000000    -1.000000


 Electric dipole moment:

               elec          nuc         total   

    x      637.916267  -632.856901     5.059366    Norm:              7.968849
    y     -783.256151   777.099424    -6.156727
    z       -0.630033     0.621133    -0.008900    Norm / debye:     20.254946


 Electric quadrupole moment:

               elec          nuc         total   

   xx    -7847.539154  7672.880687  -174.658467
   yy    -5937.600174  5800.949027  -136.651147    1/3*trace:      -134.705944
   zz      -98.504648     5.696431   -92.808217
   xy     4838.163752 -4803.338447    34.825306
   xz        4.872143    -4.843624     0.028518    Anisotropy:       93.121092
   yz       -8.621071     8.542846    -0.078225



 ==============================================================================

                              I R R E P   a   

 ==============================================================================


 Excitation is electric dipole allowed

 Excitation is magnetic dipole allowed

 Excitation is electric quadrupole allowed




                         1 singlet a excitation


 Total energy:                           -4011.642184864063    

 Excitation energy:                      0.8332363393751539E-01

 Excitation energy / eV:                  2.267352413397788    

 Excitation energy / nm:                  546.8238782548548    

 Excitation energy / cm^(-1):             18287.42378701818    


 Oscillator strength:

    velocity representation:             0.3101121786285412    

    length representation:               0.3618115228477539    

    mixed representation:                0.3349599079573988    


 Rotatory strength:

    velocity representation:             0.1237079949477343E-04

    velocity rep. / 10^(-40)erg*cm^3:    0.7992132301583679    

    length representation:               0.1278083975319651E-04

    length rep. / 10^(-40)erg*cm^3:      0.8257038057729620    


 Dominant contributions:

      occ. orbital   energy / eV   virt. orbital     energy / eV   |coeff.|^2*100
       81 a              -2.01          82 a               0.46       91.7
 

 Change of electron number:

             0.000000


 Electric transition dipole moment (velocity rep.):

    x       -2.321861        Norm:                  2.362767
    y        0.437756
    z        0.000666        Norm / debye:          6.005601


 Electric transition dipole moment (length rep.):

    x       -2.505072        Norm:                  2.552130
    y        0.487830
    z        0.000111        Norm / debye:          6.486915


 Magnetic transition dipole moment / i:

    x       -0.000004        Norm:                  0.001068
    y        0.000005
    z        0.001068        Norm / Bohr mag.:      0.292626


 Electric quadrupole transition moment:

   xx       18.789021
   yy        4.483314        1/3*trace:             7.720493
   zz       -0.110857
   xy      -11.317103
   xz       -0.005035        Anisotropy:           25.994483
   yz        0.004474
 

 Excited state no.    1 chosen for optimization


                       ----------------------
                        CPKS right-hand side 
                       ----------------------


          IRREP   tensor space dimension   number of roots

           a             15471                   1

                          ----------------
                           CPKS equations 
                          ----------------


 logfile dipl_a    will be constructed

 Switching to coarse grid

 preparing numerical integration ....
          Overall gridpoints after grid construction =        122133


                       Nonorthonormal Krylov Space Iteration


 total number of roots to be determined:   1


 maximum core memory set to  5000 MB,
 corresponding to     7544 vectors in CAO basis


 maximum number of simultaneously treated vectors (including degeneracy):        1


 Iteration IRREP Converged      Max. Euclidean
                 roots          residual norm

    1       a        0        1.089354441042074D-01
 
    2       a        0        4.878752191797951D-02
 
    3       a        0        2.243107502371956D-02
 
    4       a        0        9.468751507243965D-03
 
    5       a        0        3.558789499525072D-03
 
    6       a        0        1.243184106935067D-03
 
    7       a        0        4.804470943515159D-04
 
    8       a        0        1.651397618780486D-04
 
    9       a        0        8.239907468990078D-05
 
   10       a        0        1.919205258181393D-05
 
   11       a        1        8.119279984159072D-06
 

 converged!


 Switching to fine grid

 preparing numerical integration ....
          Overall gridpoints after grid construction =        372356

 Iteration IRREP Converged      Max. Euclidean
                 roots          residual norm

   12       a        0        1.627078864871005D-05
 

 NOTE: Residual norms are larger than 1.00D-05 due to mgrid option!

 Eigenpairs written on logfile dipl_a   



 IRREP   Vector     Frequency            Euclidean residual norm

  a         1    0.000000000000000D+00    1.627078864871005D-05
 

                          -------------------
                           relaxed densities 
                          -------------------


    ----------------------------------------
     S+T+V CONTRIBUTIONS TO ENERGY GRADIENT 
    ----------------------------------------

 1e-integral 1st. derivatives will be neglected if expon. factor < 0.100000E-10


    -----------------------------------------------
     TWO ELECTRON CONTRIBUTIONS TO ENERGY GRADIENT 
    -----------------------------------------------

 setting up bound for integral derivative estimation

 increment for numerical differentiation : 0.00050000

 biggest AO integral is expected to be    21.668154127
 biggest cartesian 1st derivative AO integral is expected to be    83.347447328

 biggest 1-particle AO density matrix element is expected to be    3.2071000007

 core memory to be involved in 2e-gradient :
   symmetry shell pair data              :         1
   two particle density+dens. estimates  :      8556
   derivative integrals                  :      8498
   derivative integral bound             :     21780
   totally                               :     30276


 setting up bound for integral derivative estimation

 increment for numerical differentiation : 0.00050000

 biggest AO integral is expected to be    21.668154127
 biggest cartesian 1st derivative AO integral is expected to be    83.347447328

 2e-integral 1st. derivatives will be neglected if expon. factor < 0.100000E-06
 outer boundary for 2e-integral derivative neglection is 0.162041E-08

 Integrated ground state density     :   161.9999976354876    


          ------------------------------------------------
           cartesian gradient of the energy (hartree/bohr)
          ------------------------------------------------

  ATOM      1 o           2 c           3 c           4 c           5 c 
dE/dx  0.3561160D-03  0.1266563D-02 -0.8742825D-03 -0.6077642D-03 -0.2922898D-02
dE/dy -0.2748938D-03 -0.1998814D-02 -0.2102310D-02  0.9799311D-03  0.3248014D-03
dE/dz -0.3613575D-04  0.1559586D-03  0.4852606D-04  0.3558866D-03 -0.2623149D-03

  ATOM      6 c           7 c           8 s           9 c          10 n 
dE/dx -0.1291374D-02  0.5373906D-04 -0.2932675D-03  0.2284029D-02  0.1248418D-02
dE/dy  0.1756448D-02  0.1563336D-02  0.2132119D-03  0.1442333D-02 -0.2220321D-02
dE/dz  0.3627584D-03 -0.4009470D-03 -0.2117730D-03 -0.3920292D-04 -0.5817871D-04

  ATOM     11 c          12 s          13 n          14 c          15 c 
dE/dx  0.1488962D-02  0.8501467D-03 -0.8345162D-03 -0.6010749D-04 -0.1068189D-02
dE/dy  0.3278923D-03 -0.1362198D-03 -0.1326307D-02  0.3974905D-03 -0.5560835D-04
dE/dz  0.1412964D-03  0.4791076D-04 -0.9716994D-04  0.5633049D-03 -0.4658101D-03

  ATOM     16 h          17 h          18 o          19 br         20 h 
dE/dx -0.2421047D-03 -0.2126628D-03 -0.2780905D-03  0.1316614D-03  0.1581946D-03
dE/dy  0.1878748D-03 -0.6160355D-04  0.1961956D-04  0.1309283D-02 -0.5371561D-03
dE/dz -0.9799726D-04  0.2018770D-03 -0.1626291D-03 -0.5916745D-04 -0.6050186D-04

  ATOM     21 h 
dE/dx  0.8352717D-03
dE/dy  0.1769562D-03
dE/dz  0.7429209D-04
 
 resulting FORCE  (fx,fy,fz) = (-.122D-04,-.141D-04,-.171D-07)
 resulting MOMENT (mx,my,mz) = (0.172D-05,0.491D-05,0.763D-04)


 **********************************************************************
  |maximum component of gradient| : 0.29228978E-02  (atom  5 c )       
   gradient norm                  : 0.72886120E-02
 **********************************************************************

 exx =      -0.009944 eyy =      -0.000909 ezz =      -0.000497
 eyz =       0.000400 exz =      -0.000068 exy =      -0.001214


 <getgrd> : data group $grad  is missing 

   ***  cartesian gradients written onto <gradient>  ***
 
 
 
 ==============================================================================
                           electrostatic moments
 ==============================================================================

 reference point for electrostatic moments:    0.00000   0.00000   0.00000

 
              nuc           gs,e       ->  gs,tot          excit     ->  total
 ------------------------------------------------------------------------------
                          charge      
 ------------------------------------------------------------------------------
         161.000000    -162.000000      -1.000000       0.000000      -1.000000
 
 ------------------------------------------------------------------------------
                       dipole moment  
 ------------------------------------------------------------------------------
   x    -632.856901     637.916267       5.059366      -1.246558       3.812808
   y     777.099424    -783.256151      -6.156727       1.265299      -4.891428
   z       0.621133      -0.630033      -0.008900       0.003334      -0.005566
 
   | dipole moment | =     6.2019 a.u. =    15.7637 debye 
 
 ------------------------------------------------------------------------------
                     quadrupole moment
 ------------------------------------------------------------------------------
  xx    7672.880687   -7847.539154    -174.658467       2.166939    -172.491528
  yy    5800.949027   -5937.600174    -136.651147      13.515557    -123.135590
  zz       5.696431     -98.504648     -92.808217       0.198122     -92.610095
  xy   -4803.338447    4838.163752      34.825306     -12.129620      22.695686
  xz      -4.843624       4.872143       0.028518      -0.032264      -0.003746
  yz       8.542846      -8.621071      -0.078225       0.024231      -0.053994
 
     1/3  trace=    -129.412404
     anisotropy=      80.123156
 
 ==============================================================================
 


    ------------------------------------------------------------------------
         total  cpu-time :  5 minutes and 56 seconds
         total wall-time :  5 minutes and 56 seconds
    ------------------------------------------------------------------------

   ****  egrad : all done  ****


    2018-02-09 16:07:06.677 

$dipole from egrad
  x     3.81280767107228    y    -4.89142804788378    z    -0.00556598234001    a.u.
   | dipole | =   15.7637843688  debye
/work/bdnguye2/luc_project/7_brluc/ex_geo_opt/save/numforce/KraftWerk/p036
