 operating system is UNIX !

 ridft (missouri) : TURBOMOLE V7.2 ( 21454 ) 4 Oct 2017 at 12:48:15
 Copyright (C) 2017 TURBOMOLE GmbH, Karlsruhe


    2018-02-09 16:20:36.931 



                                  r i d f t

                        DFT program with RI approximation 
                                for coulomb part 




                                                 
                                 References:     
                                                 
          TURBOMOLE:                             
              R. Ahlrichs, M. Baer, M. Haeser, H. Horn, and
              C. Koelmel
              Electronic structure calculations on workstation
              computers: the program system TURBOMOLE
              Chem. Phys. Lett. 162: 165 (1989)
          Density Functional:                              
              O. Treutler and R. Ahlrichs                      
              Efficient Molecular Numerical Integration Schemes
              J. Chem. Phys. 102: 346 (1995)                   
          Parallel Version:                                
              Performance of parallel TURBOMOLE for Density    
              Functional Calculations                          
              M. v. Arnim and R. Ahlrichs                      
              J. Comp. Chem. 19: 1746 (1998)                   
          RI-J Method:                                     
              Auxiliary Basis Sets to approximate Coulomb      
              Potentials                                       
              Chem. Phys. Lett. 240: 283 (1995)                
              K. Eichkorn, O. Treutler, H. Oehm, M. Haeser     
              and R. Ahlrichs                                  
              Chem. Phys. Lett. 242: 652 (1995)                
                                                           
              Auxiliary Basis Sets for Main Row Atoms and their
              Use to approximate Coulomb Potentials            
              K. Eichkorn, F. Weigend, O. Treutler and         
              R. Ahlrichs                                      
              Theo. Chem. Acc. 97: 119 (1997)                   
                                                           
              Accurate Coulomb-fitting basis sets for H to Rn 
              F. Weigend                                        
              Phys. Chem. Chem. Phys. 8: 1057 (2006)            
                                                           
          Multipole accelerated RI-J (MARI-J):             
              Fast evaluation of the Coulomb potential for     
              electron densities using multipole accelerated   
              resolution of identity approximation             
              M. Sierka, A. Hogekamp and R. Ahlrichs           
              J. Chem. Phys. 118: 9136 (2003)                  
          RI-JK Method:                                     
              A fully direct RI-HF algorithm: Implementation,
              optimised auxiliary basis sets, demonstration of
              accuracy and efficiency                         
              F. Weigend                                      
              Phys. Chem. Chem. Phys. 4: 4285 (2002)           
          Two-component HF and DFT with spin-orbit coupling:  
              Self-consistent treatment of spin-orbit         
              interactions with efficient Hartree-Fock and    
              density functional methods                      
              M. K. Armbruster, F. Weigend, C. van Wüllen and 
              W. Klopper                                      
              Phys. Chem. Chem. Phys. 10: 1748 (2008)         
          Relativistic all-electron 2c calculations           
              An efficient implementation of two-component    
              relativistic exact-decoupling methods for large 
              molecules                                       
              D. Peng, N. Middendorf, F. Weigend, M. Reiher   
              J. Chem. Phys. 138, 184105 (2013)               
                                         




              +--------------------------------------------------+
              |      general information about current run       |
              +--------------------------------------------------+

 
 PBE0 hybrid functional
 exchange:    3/4 (LDA+PBE) + 1/4 HF
 correlation: LDA (PW) + PBE
 A Hybrid-DFT calculation using the RI-J approximation will be carried out.
 Allocatable memory for RI due to $ricore (MB):                  5000


              +--------------------------------------------------+
              | Atomic coordinate, charge and isotop information |
              +--------------------------------------------------+

                    atomic coordinates            atom    charge  isotop
        -12.81113226    6.80149215    0.00926576    o      8.000     0
        -10.86727772    5.50450451    0.00603937    c      6.000     0
         -8.33505724    6.66336464    0.00643848    c      6.000     0
         -6.09959309    5.19239171    0.00186558    c      6.000     0
         -6.19266757    2.53171690   -0.00586979    c      6.000     0
         -8.59331381    1.36573875   -0.01046175    c      6.000     0
        -10.80366095    2.76766396   -0.00441730    c      6.000     0
         -3.01796232    6.22262996    0.01193127    s     16.000     0
         -2.04200491    3.03663314   -0.00445701    c      6.000     0
         -3.85755376    1.35728824   -0.01139584    n      7.000     0
          0.63118869    2.54933905    0.00152846    c      6.000     0
          1.62412385   -0.65501664   -0.00871233    s     16.000     0
          2.36761120    4.30904704    0.00555832    n      7.000     0
          4.77489467    3.37746895    0.00234456    c      6.000     0
          4.85384853    0.44602738   -0.00849367    c      6.000     0
          5.88462896   -0.23763762    1.67577722    h      1.000     0
          5.87977594   -0.22127908   -1.69563835    h      1.000     0
          6.72683852    4.59726362    0.00624237    o      8.000     0
         -8.16300410   10.16793700    0.02020482    br    35.000     0
         -8.66520506   -0.70244281   -0.01770776    h      1.000     0
        -12.64870703    1.83497169   -0.00918144    h      1.000     0
 
       center of nuclear mass  :   -4.07501263    5.04289131    0.00503065
       center of nuclear charge:   -3.92982531    4.82668762    0.00436165

              +--------------------------------------------------+
              |               basis set information              |
              +--------------------------------------------------+

              we will work with the 1s 3p 5d 7f 9g ... basis set
              ...i.e. with spherical basis functions...

   type   atoms  prim   cont   basis
   ---------------------------------------------------------------------------
    o        2     24     14   def2-SV(P)   [3s2p1d|7s4p1d]
    c       10     24     14   def2-SV(P)   [3s2p1d|7s4p1d]
    s        2     36     18   def2-SV(P)   [4s3p1d|10s7p1d]
    n        2     24     14   def2-SV(P)   [3s2p1d|7s4p1d]
    h        4      4      2   def2-SV(P)   [2s|4s]
    br       1     74     32   def2-SV(P)   [5s4p3d|14s10p6d]
   ---------------------------------------------------------------------------
   total:   21    498    272
   ---------------------------------------------------------------------------

   total number of primitive shells          :   88
   total number of contracted shells         :  120
   total number of cartesian basis functions :  291
   total number of SCF-basis functions       :  272


 integral neglect threshold       :  0.11E-10
 integral storage threshold THIZE :  0.10E-04
 integral storage threshold THIME :         5

 RI-J AUXILIARY BASIS SET information:

              we will work with the 1s 3p 5d 7f 9g ... basis set
              ...i.e. with spherical basis functions...

   type   atoms  prim   cont   basis
   ---------------------------------------------------------------------------
    o        2     70     49   def2-SV(P)   [6s4p3d1f1g|12s5p4d2f1g]
    c       10     70     49   def2-SV(P)   [6s4p3d1f1g|12s5p4d2f1g]
    s        2     77     51   def2-SV(P)   [8s4p3d1f1g|14s5p5d2f1g]
    n        2     70     49   def2-SV(P)   [6s4p3d1f1g|12s5p4d2f1g]
    h        4     16     11   def2-SV(P)   [3s1p1d|5s2p1d]
    br       1     89     58   def2-SV(P)   [8s4p3d2f1g|19s5p5d3f1g]
   ---------------------------------------------------------------------------
   total:   21   1287    890
   ---------------------------------------------------------------------------

   total number of primitive shells          :  140
   total number of contracted shells         :  282
   total number of cartesian basis functions : 1101
   total number of SCF-basis functions       :  890


 symmetry group of the molecule :   c1 

 the group has the following generators :
   c1(z)

    1 symmetry operations found

 there are 1 real representations :   a   

 maximum number of shells which are related by symmetry :  1


    mo occupation :
   irrep   mo's   occupied
    a      272       81
 
 number of basis functions   :                    272
 number of occupied orbitals :                     81
 
  
           ------------------
           density functional
           ------------------
 PBE0 hybrid functional
 exchange:    3/4 (LDA+PBE) + 1/4 HF
 correlation: LDA (PW) + PBE

 iterations will be done with small grid
  
 spherical integration : Lebedev's spherical grid
 spherical gridsize    :                     5
    i.e. gridpoints    :                   590
 value for diffuse not defined
 radial integration    : Chebyshev 2nd kind (scaling 3)
 radial gridsize       :                     8
 integration cells     :                    21
 partition function    : becke
 partition sharpness   :                     3
  

 biggest AO integral is expected to be    21.668154127
  
           ------------------------
               RI-J - INFORMATION
           ------------------------
 Contributions to RI integral batches: 
  neglected integral batches:                  2258
  direct contribution:                            0
  memory contribution:                  5002
 Memory core needed for (P|Q) and Cholesky      7 MByte
 Memory core minimum needed except of (P|Q)     1 MByte
 Total minimum memory core needed (sum)         7 MByte
  
 ****************************************
 Memory allocated for RI-J   249 MByte
 ****************************************
                                            

          ------------------------
          nuclear repulsion energy  :   1710.73925344    
          ------------------------


         -----------------
         -S,T+V- integrals
         -----------------

 1e-integrals will be neglected if expon. factor < 0.114844E-11
 
   Difference densities algorithm switched on.
   The maximal number of linear combinations of
   difference densities is                    20 .

 DIIS switched on: error vector is FDS-SDF
 Max. Iterations for DIIS is     :   4
 DIIS matrix (see manual) 
    Scaling factor of diagonals  :  1.200
    threshold for scaling factor :  0.000

 scf convergence criterion : increment of total energy < .1000000D-06
                  and increment of one-electron energy < .1000000D-03

  MOs are in ASCII format !


 automatic virtual orbital shift switched on 
      shift if e(lumo)-e(homo) < 0.10000000    


 reading orbital data $scfmo  from file mos
 orbital characterization : scfconv=7

 dump of DSCF restart information has been disabled !


 Starting SCF iterations

          Overall gridpoints after grid construction =        122136

 ITERATION  ENERGY          1e-ENERGY        2e-ENERGY     NORM[dD(SAO)]  TOL
   1  -4011.7257543981    -8982.3276783     3259.8626704    0.000D+00 0.115D-10
                            Exc = -172.724295737     Coul =  3488.24538217    
                            exK = -55.6584159960    
                              N = 162.00000586    
                            current damping = 0.700
 
          max. resid. norm for Fia-block=  2.510D-03 for orbital      1a         
          max. resid. fock norm         =  4.544D-03 for orbital      1a         

 ITERATION  ENERGY          1e-ENERGY        2e-ENERGY     NORM[dD(SAO)]  TOL
   2  -4011.7257797102    -8982.3329955     3259.8679624    0.162D-01 0.726D-11
                            Exc = -172.724183923      Eck =  3432.59214630    
                              N = 162.00000597    
                            current damping = 0.650
 
          Norm of current diis error: 0.53650E-02
          max. resid. norm for Fia-block=  1.034D-03 for orbital      1a         
          max. resid. fock norm         =  1.871D-03 for orbital      1a         

 ITERATION  ENERGY          1e-ENERGY        2e-ENERGY     NORM[dD(SAO)]  TOL
   3  -4011.7257845696    -8982.3267868     3259.8617488    0.347D-02 0.562D-11
                            Exc = -172.724249492      Eck =  3432.58599826    
                              N = 162.00000599    
                            current damping = 0.600
 
          Norm of current diis error: 0.31741E-02
          max. resid. norm for Fia-block=  4.073D-04 for orbital      1a         
          max. resid. fock norm         =  7.372D-04 for orbital      1a         

 ITERATION  ENERGY          1e-ENERGY        2e-ENERGY     NORM[dD(SAO)]  TOL
   4  -4011.7257861518    -8982.3322047     3259.8671651    0.128D-02 0.520D-11
                            Exc = -172.724211082      Eck =  3432.59137617    
                              N = 162.00000601    
                            current damping = 0.650
 
          Norm of current diis error: 0.12169E-02
          max. resid. norm for Fia-block=  1.527D-04 for orbital      1a         
          max. resid. fock norm         =  2.765D-04 for orbital      1a         

 ITERATION  ENERGY          1e-ENERGY        2e-ENERGY     NORM[dD(SAO)]  TOL
   5  -4011.7257864125    -8982.3312815     3259.8662417    0.593D-03 0.495D-11
                            Exc = -172.724224979      Eck =  3432.59046667    
                              N = 162.00000602    
                            current damping = 0.700
 
          Norm of current diis error: 0.47589E-03
          max. resid. norm for Fia-block=  6.017D-05 for orbital      1a         
          max. resid. fock norm         =  1.125D-04 for orbital    197a         
          mo-orthogonalization: Cholesky decomposition

 ITERATION  ENERGY          1e-ENERGY        2e-ENERGY     NORM[dD(SAO)]  TOL
   6  -4011.7257866885    -8982.3305696     3259.8655295    0.250D-03 0.481D-11
                            Exc = -172.724216796      Eck =  3432.58974630    
                              N = 162.00000604    
                            current damping = 0.550
 
          Norm of current diis error: 0.21453E-03
          max. resid. norm for Fia-block=  2.478D-05 for orbital      1a         
          max. resid. fock norm         =  5.065D-05 for orbital    241a         

 ITERATION  ENERGY          1e-ENERGY        2e-ENERGY     NORM[dD(SAO)]  TOL
   7  -4011.7257866965    -8982.3310999     3259.8660598    0.149D-03 0.472D-11
                            Exc = -172.724212914      Eck =  3432.59027269    
                              N = 162.00000604    
                            current damping = 0.600
 
          Norm of current diis error: 0.14613E-03
          max. resid. norm for Fia-block=  9.673D-06 for orbital     81a         
          max. resid. fock norm         =  1.817D-05 for orbital    193a         

 ENERGY CONVERGED !

          Overall gridpoints after grid construction =        372370

 ITERATION  ENERGY          1e-ENERGY        2e-ENERGY     NORM[dD(SAO)]  TOL
   8  -4011.7257832176    -8982.3310460     3259.8660093    0.417D-04 0.465D-11
                            Exc = -172.724220694      Eck =  3432.59023002    
                              N = 161.99999771    
                            current damping = 0.650
 
          Norm of current diis error: 0.62150E-04
          max. resid. norm for Fia-block=  4.054D-06 for orbital     72a         
          max. resid. fock norm         =  8.458D-06 for orbital    241a         

 End of SCF iterations

   convergence criteria satisfied after     8 iterations


                  ------------------------------------------ 
                 |  total energy      =  -4011.72578321756  |
                  ------------------------------------------ 
                 :  kinetic energy    =   4002.28874457638  :
                 :  potential energy  =  -8014.01452779394  :
                 :  virial theorem    =      1.99764763617  :
                 :  wavefunction norm =      1.00000000000  :
                  .......................................... 


 <geterg> : there is no data group $energy 


 orbitals $scfmo  will be written to file mos

    irrep                 77a         78a         79a         80a         81a   
 eigenvalues H         -0.16895    -0.16320    -0.12862    -0.11957    -0.07374
            eV          -4.5974     -4.4408     -3.4999     -3.2537     -2.0067
 occupation              2.0000      2.0000      2.0000      2.0000      2.0000 

    irrep                 82a         83a         84a         85a         86a   
 eigenvalues H          0.01742     0.10837     0.11875     0.12777     0.13581
            eV           0.4739      2.9488      3.2313      3.4769      3.6955
 
 
 
 
 ==============================================================================
                           electrostatic moments
 ==============================================================================

 reference point for electrostatic moments:    0.00000   0.00000   0.00000

 
              nuc           elec       ->  total
 ------------------------------------------------------------------------------
                          charge      
 ------------------------------------------------------------------------------
         161.000000    -162.000000      -1.000000
 
 ------------------------------------------------------------------------------
                       dipole moment  
 ------------------------------------------------------------------------------
   x    -632.701874     637.753109       5.051234
   y     777.096707    -783.243637      -6.146930
   z       0.702225      -0.709601      -0.007376
 
   | dipole moment | =     7.9561 a.u. =    20.2224 debye 
 
 ------------------------------------------------------------------------------
                     quadrupole moment
 ------------------------------------------------------------------------------
  xx    7670.531414   -7845.115693    -174.584280
  yy    5800.476960   -5937.003589    -136.526630
  zz       5.705789     -98.526529     -92.820740
  xy   -4801.133528    4835.820799      34.687271
  xz      -6.488098       6.520487       0.032390
  yz       9.469070      -9.532597      -0.063527
 
     1/3  trace=    -134.643883
     anisotropy=      92.906235
 
 ==============================================================================
 


    ------------------------------------------------------------------------
         total  cpu-time :  1 minutes and  2 seconds
         total wall-time :  1 minutes and  2 seconds
    ------------------------------------------------------------------------

   ****  ridft : all done  ****


    2018-02-09 16:21:39.193 


 egrad (missouri) : TURBOMOLE V7.2 ( 21454 ) 4 Oct 2017 at 12:24:43
 Copyright (C) 2017 TURBOMOLE GmbH, Karlsruhe


    2018-02-09 16:21:39.212 




                               e g r a d

                             TURBOMOLE GmbH


             integral direct evaluation of excited state
                     and polarizability gradients
                 and first-order nonadiabatic couplings



          references (see also programs escf, dscf and ridft) 

          review 
          F. Furche and D. Rappoport,  
          "Density functional methods for excited states: 
          equilibrium structure and electronic spectra",
          ch. III of "Computational Photochemistry", ed. by 
          M. Olivucci, vol. 16 of "Theoretical and Computational 
          Chemistry", Elsevier, Amsterdam, 2005.

          nonorthonormal Krylov space methods 
          F. Furche, B. T. Krull, B. D. Nguyen, J. Kwon, 
          J. Chem. Phys. 144 (2016), 174105.

          RI-J method 
          D. Rappoport and F. Furche, 
          J. Chem. Phys. 122 (2005), 064105.

          Lagrangian method, implementation, benchmarks 
          F. Furche and R. Ahlrichs,
          J. Chem. Phys. 117 (2002), 7433;
          J. Chem. Phys. 121 (2004), 12772 (E).

          Polarizability derivatives, Raman intensities 
          D. Rappoport and F. Furche, 
          J. Chem. Phys. 126 (2007), 201104.

          First-order nonadiabatic couplings 
          R. Send and F. Furche, 
          J. Chem. Phys. 132 (2010), 044107.
                                     




              +--------------------------------------------------+
              | Atomic coordinate, charge and isotop information |
              +--------------------------------------------------+

                    atomic coordinates            atom    charge  isotop
        -12.81113226    6.80149215    0.00926576    o      8.000     0
        -10.86727772    5.50450451    0.00603937    c      6.000     0
         -8.33505724    6.66336464    0.00643848    c      6.000     0
         -6.09959309    5.19239171    0.00186558    c      6.000     0
         -6.19266757    2.53171690   -0.00586979    c      6.000     0
         -8.59331381    1.36573875   -0.01046175    c      6.000     0
        -10.80366095    2.76766396   -0.00441730    c      6.000     0
         -3.01796232    6.22262996    0.01193127    s     16.000     0
         -2.04200491    3.03663314   -0.00445701    c      6.000     0
         -3.85755376    1.35728824   -0.01139584    n      7.000     0
          0.63118869    2.54933905    0.00152846    c      6.000     0
          1.62412385   -0.65501664   -0.00871233    s     16.000     0
          2.36761120    4.30904704    0.00555832    n      7.000     0
          4.77489467    3.37746895    0.00234456    c      6.000     0
          4.85384853    0.44602738   -0.00849367    c      6.000     0
          5.88462896   -0.23763762    1.67577722    h      1.000     0
          5.87977594   -0.22127908   -1.69563835    h      1.000     0
          6.72683852    4.59726362    0.00624237    o      8.000     0
         -8.16300410   10.16793700    0.02020482    br    35.000     0
         -8.66520506   -0.70244281   -0.01770776    h      1.000     0
        -12.64870703    1.83497169   -0.00918144    h      1.000     0
 
       center of nuclear mass  :   -4.07501263    5.04289131    0.00503065
       center of nuclear charge:   -3.92982531    4.82668762    0.00436165

              +--------------------------------------------------+
              |               basis set information              |
              +--------------------------------------------------+

              we will work with the 1s 3p 5d 7f 9g ... basis set
              ...i.e. with spherical basis functions...

   type   atoms  prim   cont   basis
   ---------------------------------------------------------------------------
    o        2     24     14   def2-SV(P)   [3s2p1d|7s4p1d]
    c       10     24     14   def2-SV(P)   [3s2p1d|7s4p1d]
    s        2     36     18   def2-SV(P)   [4s3p1d|10s7p1d]
    n        2     24     14   def2-SV(P)   [3s2p1d|7s4p1d]
    h        4      4      2   def2-SV(P)   [2s|4s]
    br       1     74     32   def2-SV(P)   [5s4p3d|14s10p6d]
   ---------------------------------------------------------------------------
   total:   21    498    272
   ---------------------------------------------------------------------------

   total number of primitive shells          :   88
   total number of contracted shells         :  120
   total number of cartesian basis functions :  291
   total number of SCF-basis functions       :  272


 residuum convergence criterium   :  0.10E-04


 integral neglect threshold       :  0.11E-10
 integral storage threshold THIZE :  0.10E-04
 integral storage threshold THIME :         5

 
             FOUND RI-J FLAG !
 
  
 AUXILIARY BASIS SET information:

              we will work with the 1s 3p 5d 7f 9g ... basis set
              ...i.e. with spherical basis functions...

   type   atoms  prim   cont   basis
   ---------------------------------------------------------------------------
    o        2     70     49   def2-SV(P)   [6s4p3d1f1g|12s5p4d2f1g]
    c       10     70     49   def2-SV(P)   [6s4p3d1f1g|12s5p4d2f1g]
    s        2     77     51   def2-SV(P)   [8s4p3d1f1g|14s5p5d2f1g]
    n        2     70     49   def2-SV(P)   [6s4p3d1f1g|12s5p4d2f1g]
    h        4     16     11   def2-SV(P)   [3s1p1d|5s2p1d]
    br       1     89     58   def2-SV(P)   [8s4p3d2f1g|19s5p5d3f1g]
   ---------------------------------------------------------------------------
   total:   21   1287    890
   ---------------------------------------------------------------------------

   total number of primitive shells          :  140
   total number of contracted shells         :  282
   total number of cartesian basis functions : 1101
   total number of SCF-basis functions       :  890

 RPA SINGLET-EXCITATION-CALCULATION 
 
             FOUND DFT-FLAG !
 

 symmetry group of the molecule :   c1 

 the group has the following generators :
   c1(z)

    1 symmetry operations found

 there are 1 real representations :   a   

 maximum number of shells which are related by symmetry :  1

 IRREP of excited state :   a   
 

 determining totally symmetric integral contributions 
    - equivalent to irreducible tensor elements - 
 which can be formed within each triple of representations :

             representation triple      contributions

              a     a     a               1

    mo occupation :
   irrep   mo's   occupied
    a      272       81
 
 number of basis functions   :                    272
 number of occupied orbitals :                     81
 
  
           ------------------
           density functional
           ------------------
 PBE0 hybrid functional
 exchange:    3/4 (LDA+PBE) + 1/4 HF
 correlation: LDA (PW) + PBE

 iterations will be done with small grid
  
 spherical integration : Lebedev's spherical grid
 spherical gridsize    :                     5
    i.e. gridpoints    :                   590
 value for diffuse not defined
 radial integration    : Chebyshev 2nd kind (scaling 3)
 radial gridsize       :                     8
 integration cells     :                    21
 partition function    : becke
 partition sharpness   :                     3
  
  
           ----------------------
               RI - INFORMATION
           ----------------------

 biggest AO integral is expected to be    21.668154127

 Threshold for integral neglect (rithr2):   0.11E-10
 Threshold for integral neglect (rithr1):   0.11E-10

 Contributions to RI integral batches: 
  neglected integral batches:                  2114
  direct contribution:                            0
  memory contribution:                  5146
 Core memory available (ricore)            5000 MiB
 Core memory needed for (P|Q) and Cholesky 7 MiB
 Core memory used for integrals            250 MiB
  
 ****************************************
 Memory allocated for RIDFT 257 MiB
 ****************************************
                                            
  MOs are in ASCII format !


 reading orbital data $scfmo  from file mos
 orbital characterization : scfconv=7
 preparing numerical integration ....
          Overall gridpoints after grid construction =        122136

 Calculating ground state density on molecular grid

 Integral of ground state density: N =   162.0000060397986    



 number of non-frozen orbitals          :   272
 number of non-frozen occupied orbitals :    81



                        -------------------
                         excitation vector 
                        -------------------


 dimension of super-tensorspace: 2

          IRREP   tensor space dimension   number of roots

           a             15471                   1

 maximum number of Davidson iterations set to   25


 machine precision: 2.22D-16


 logfile sing_a    will be constructed


                       Nonorthonormal Krylov Space Iteration


 total number of roots to be determined:   1


 maximum core memory set to  5000 MB,
 corresponding to     3796 vectors in CAO basis


 maximum number of simultaneously treated vectors (including degeneracy):        2


 Iteration IRREP Converged      Max. Euclidean
                 roots          residual norm

    1       a        0        3.034732932931953D-02
 
    2       a        0        6.037437584644101D-02
 
    3       a        0        4.665818806412681D-02
 
    4       a        0        2.017346094710172D-02
 
    5       a        0        7.268498610762492D-03
 
    6       a        0        3.105382872048958D-03
 
    7       a        0        1.499015979522406D-03
 
    8       a        0        6.571241713720930D-04
 
    9       a        0        2.857119736531912D-04
 
   10       a        0        1.084042257295880D-04
 
   11       a        0        6.094228808758554D-05
 
   12       a        0        1.859733947002176D-05
 
   13       a        1        8.241079946490815D-06
 

 converged!


 Switching to fine grid

 preparing numerical integration ....
          Overall gridpoints after grid construction =        372370

 Calculating ground state density on molecular grid

 Integral of ground state density: N =   161.9999977146334    



 Iteration IRREP Converged      Max. Euclidean
                 roots          residual norm

   14       a        0        1.045754825478407D-05
 

 NOTE: Residual norms are larger than 1.00D-05 due to mgrid option!

 Eigenpairs written on logfile sing_a   



 IRREP   Vector     Eigenvalue           Euclidean residual norm

  a         1    8.359064813668085D-02    1.045754825478407D-05
 




                    Selection rules for point group c1  


 Subduction with respect to c1  :

    Polar vector representation: a                           

    Axial vector representation: a                           

    Symmetric second rank tensor representation: a                           




                            Ground state


 Total energy:                           -4011.725783218000    

 Charge:

               elec          nuc         total

          -162.000000   161.000000    -1.000000


 Electric dipole moment:

               elec          nuc         total   

    x      637.753109  -632.701874     5.051234    Norm:              7.956115
    y     -783.243637   777.096707    -6.146930
    z       -0.709601     0.702225    -0.007376    Norm / debye:     20.222581


 Electric quadrupole moment:

               elec          nuc         total   

   xx    -7845.115693  7670.531414  -174.584280
   yy    -5937.003589  5800.476960  -136.526630    1/3*trace:      -134.643883
   zz      -98.526529     5.705789   -92.820740
   xy     4835.820799 -4801.133528    34.687271
   xz        6.520487    -6.488098     0.032390    Anisotropy:       92.906235
   yz       -9.532597     9.469070    -0.063527



 ==============================================================================

                              I R R E P   a   

 ==============================================================================


 Excitation is electric dipole allowed

 Excitation is magnetic dipole allowed

 Excitation is electric quadrupole allowed




                         1 singlet a excitation


 Total energy:                           -4011.642192569863    

 Excitation energy:                      0.8359064813668085E-01

 Excitation energy / eV:                  2.274618242554295    

 Excitation energy / nm:                  545.0771548690278    

 Excitation energy / cm^(-1):             18346.02662977167    


 Oscillator strength:

    velocity representation:             0.3133278689075663    

    length representation:               0.3653153141451363    

    mixed representation:                0.3383189928614812    


 Rotatory strength:

    velocity representation:             0.8007425499482085E-06

    velocity rep. / 10^(-40)erg*cm^3:    0.5173182542807648E-01

    length representation:               0.9757566072076959E-06

    length rep. / 10^(-40)erg*cm^3:      0.6303857646583859E-01


 Dominant contributions:

      occ. orbital   energy / eV   virt. orbital     energy / eV   |coeff.|^2*100
       81 a              -2.01          82 a               0.47       91.8
 

 Change of electron number:

             0.000000


 Electric transition dipole moment (velocity rep.):

    x       -2.329976        Norm:                  2.371190
    y        0.440175
    z        0.000239        Norm / debye:          6.027009


 Electric transition dipole moment (length rep.):

    x       -2.513103        Norm:                  2.560358
    y        0.489642
    z        0.000282        Norm / debye:          6.507831


 Magnetic transition dipole moment / i:

    x        0.000001        Norm:                  0.001086
    y        0.000006
    z        0.001086        Norm / Bohr mag.:      0.297773


 Electric quadrupole transition moment:

   xx       18.812135
   yy        4.507468        1/3*trace:             7.736476
   zz       -0.110176
   xy      -11.346223
   xz       -0.006402        Anisotropy:           26.042476
   yz        0.006506
 

 Excited state no.    1 chosen for optimization


                       ----------------------
                        CPKS right-hand side 
                       ----------------------


          IRREP   tensor space dimension   number of roots

           a             15471                   1

                          ----------------
                           CPKS equations 
                          ----------------


 logfile dipl_a    will be constructed

 Switching to coarse grid

 preparing numerical integration ....
          Overall gridpoints after grid construction =        122136


                       Nonorthonormal Krylov Space Iteration


 total number of roots to be determined:   1


 maximum core memory set to  5000 MB,
 corresponding to     7544 vectors in CAO basis


 maximum number of simultaneously treated vectors (including degeneracy):        1


 Iteration IRREP Converged      Max. Euclidean
                 roots          residual norm

    1       a        0        1.086760372303321D-01
 
    2       a        0        4.884121999390315D-02
 
    3       a        0        2.233259125559016D-02
 
    4       a        0        9.421950579923099D-03
 
    5       a        0        3.543566319318466D-03
 
    6       a        0        1.236527458437730D-03
 
    7       a        0        4.758670434220179D-04
 
    8       a        0        1.638592141576742D-04
 
    9       a        0        8.198030268784010D-05
 
   10       a        0        1.891383363101700D-05
 
   11       a        1        8.004589682772990D-06
 

 converged!


 Switching to fine grid

 preparing numerical integration ....
          Overall gridpoints after grid construction =        372370

 Iteration IRREP Converged      Max. Euclidean
                 roots          residual norm

   12       a        0        1.618754348920660D-05
 

 NOTE: Residual norms are larger than 1.00D-05 due to mgrid option!

 Eigenpairs written on logfile dipl_a   



 IRREP   Vector     Frequency            Euclidean residual norm

  a         1    0.000000000000000D+00    1.618754348920660D-05
 

                          -------------------
                           relaxed densities 
                          -------------------


    ----------------------------------------
     S+T+V CONTRIBUTIONS TO ENERGY GRADIENT 
    ----------------------------------------

 1e-integral 1st. derivatives will be neglected if expon. factor < 0.100000E-10


    -----------------------------------------------
     TWO ELECTRON CONTRIBUTIONS TO ENERGY GRADIENT 
    -----------------------------------------------

 setting up bound for integral derivative estimation

 increment for numerical differentiation : 0.00050000

 biggest AO integral is expected to be    21.668154127
 biggest cartesian 1st derivative AO integral is expected to be    83.347447328

 biggest 1-particle AO density matrix element is expected to be    3.2069914117

 core memory to be involved in 2e-gradient :
   symmetry shell pair data              :         1
   two particle density+dens. estimates  :      8556
   derivative integrals                  :      8498
   derivative integral bound             :     21780
   totally                               :     30276


 setting up bound for integral derivative estimation

 increment for numerical differentiation : 0.00050000

 biggest AO integral is expected to be    21.668154127
 biggest cartesian 1st derivative AO integral is expected to be    83.347447328

 2e-integral 1st. derivatives will be neglected if expon. factor < 0.100000E-06
 outer boundary for 2e-integral derivative neglection is 0.162052E-08

 Integrated ground state density     :   161.9999977146333    


          ------------------------------------------------
           cartesian gradient of the energy (hartree/bohr)
          ------------------------------------------------

  ATOM      1 o           2 c           3 c           4 c           5 c 
dE/dx  0.1687437D-02 -0.9357336D-04 -0.1310124D-02 -0.7434352D-03  0.2127666D-02
dE/dy -0.1085773D-02  0.1869242D-02 -0.9750552D-04  0.7501887D-03  0.5434821D-03
dE/dz -0.1263334D-03  0.3693230D-03 -0.2213692D-03 -0.2483391D-03  0.2804891D-03

  ATOM      6 c           7 c           8 s           9 c          10 n 
dE/dx  0.1727401D-02 -0.2361226D-02 -0.2231165D-03 -0.1018807D-02 -0.1256269D-02
dE/dy -0.1643326D-02  0.2849650D-03  0.3702812D-03  0.1547233D-02 -0.1542690D-02
dE/dz -0.7492868D-04 -0.9289942D-05  0.2522486D-03 -0.4555370D-03 -0.2020516D-04

  ATOM     11 c          12 s          13 n          14 c          15 c 
dE/dx  0.3638789D-02  0.3608457D-04 -0.1356512D-02 -0.1284451D-02  0.4984233D-03
dE/dy  0.1545298D-03 -0.2857706D-03 -0.1079390D-02  0.6623542D-03  0.5335556D-03
dE/dz  0.3607615D-03  0.3777428D-04 -0.5869420D-04 -0.8825629D-04 -0.1481257D-02

  ATOM     16 h          17 h          18 o          19 br         20 h 
dE/dx  0.3263383D-03 -0.4884758D-03  0.4629278D-04  0.2765387D-03 -0.1452445D-03
dE/dy -0.6616469D-03  0.5529385D-04 -0.4142211D-03  0.1078420D-03 -0.1914667D-04
dE/dz  0.8525909D-03  0.6028384D-03  0.7763912D-05  0.3664019D-04  0.2189803D-04

  ATOM     21 h 
dE/dx -0.9493976D-04
dE/dy -0.6290621D-04
dE/dz -0.3792133D-04
 
 resulting FORCE  (fx,fy,fz) = (-.112D-04,-.134D-04,0.196D-06)
 resulting MOMENT (mx,my,mz) = (-.866D-06,0.136D-04,0.712D-04)


 **********************************************************************
  |maximum component of gradient| : 0.36387885E-02  (atom 11 c )       
   gradient norm                  : 0.76300096E-02
 **********************************************************************

 exx =      -0.005065 eyy =       0.008619 ezz =       0.000423
 eyz =      -0.001179 exz =       0.001369 exy =      -0.004294


 <getgrd> : data group $grad  is missing 

   ***  cartesian gradients written onto <gradient>  ***
 
 
 
 ==============================================================================
                           electrostatic moments
 ==============================================================================

 reference point for electrostatic moments:    0.00000   0.00000   0.00000

 
              nuc           gs,e       ->  gs,tot          excit     ->  total
 ------------------------------------------------------------------------------
                          charge      
 ------------------------------------------------------------------------------
         161.000000    -162.000000      -1.000000       0.000000      -1.000000
 
 ------------------------------------------------------------------------------
                       dipole moment  
 ------------------------------------------------------------------------------
   x    -632.701874     637.753109       5.051234      -1.245136       3.806099
   y     777.096707    -783.243637      -6.146930       1.262925      -4.884005
   z       0.702225      -0.709601      -0.007376       0.003268      -0.004108
 
   | dipole moment | =     6.1919 a.u. =    15.7383 debye 
 
 ------------------------------------------------------------------------------
                     quadrupole moment
 ------------------------------------------------------------------------------
  xx    7670.531414   -7845.115693    -174.584280       2.132517    -172.451763
  yy    5800.476960   -5937.003589    -136.526630      13.491244    -123.035386
  zz       5.705789     -98.526529     -92.820740       0.196823     -92.623917
  xy   -4801.133528    4835.820799      34.687271     -12.109906      22.577365
  xz      -6.488098       6.520487       0.032390      -0.025401       0.006989
  yz       9.469070      -9.532597      -0.063527       0.024736      -0.038791
 
     1/3  trace=    -129.370355
     anisotropy=      79.992982
 
 ==============================================================================
 


    ------------------------------------------------------------------------
         total  cpu-time :  5 minutes and 52 seconds
         total wall-time :  5 minutes and 52 seconds
    ------------------------------------------------------------------------

   ****  egrad : all done  ****


    2018-02-09 16:27:31.106 

$dipole from egrad
  x     3.80609871921138    y    -4.88400501159822    z    -0.00410797913471    a.u.
   | dipole | =   15.7384171388  debye
/work/bdnguye2/luc_project/7_brluc/ex_geo_opt/save/numforce/KraftWerk/p039
