 operating system is UNIX !

 ridft (missouri) : TURBOMOLE V7.2 ( 21454 ) 4 Oct 2017 at 12:48:15
 Copyright (C) 2017 TURBOMOLE GmbH, Karlsruhe


    2018-02-09 16:48:30.778 



                                  r i d f t

                        DFT program with RI approximation 
                                for coulomb part 




                                                 
                                 References:     
                                                 
          TURBOMOLE:                             
              R. Ahlrichs, M. Baer, M. Haeser, H. Horn, and
              C. Koelmel
              Electronic structure calculations on workstation
              computers: the program system TURBOMOLE
              Chem. Phys. Lett. 162: 165 (1989)
          Density Functional:                              
              O. Treutler and R. Ahlrichs                      
              Efficient Molecular Numerical Integration Schemes
              J. Chem. Phys. 102: 346 (1995)                   
          Parallel Version:                                
              Performance of parallel TURBOMOLE for Density    
              Functional Calculations                          
              M. v. Arnim and R. Ahlrichs                      
              J. Comp. Chem. 19: 1746 (1998)                   
          RI-J Method:                                     
              Auxiliary Basis Sets to approximate Coulomb      
              Potentials                                       
              Chem. Phys. Lett. 240: 283 (1995)                
              K. Eichkorn, O. Treutler, H. Oehm, M. Haeser     
              and R. Ahlrichs                                  
              Chem. Phys. Lett. 242: 652 (1995)                
                                                           
              Auxiliary Basis Sets for Main Row Atoms and their
              Use to approximate Coulomb Potentials            
              K. Eichkorn, F. Weigend, O. Treutler and         
              R. Ahlrichs                                      
              Theo. Chem. Acc. 97: 119 (1997)                   
                                                           
              Accurate Coulomb-fitting basis sets for H to Rn 
              F. Weigend                                        
              Phys. Chem. Chem. Phys. 8: 1057 (2006)            
                                                           
          Multipole accelerated RI-J (MARI-J):             
              Fast evaluation of the Coulomb potential for     
              electron densities using multipole accelerated   
              resolution of identity approximation             
              M. Sierka, A. Hogekamp and R. Ahlrichs           
              J. Chem. Phys. 118: 9136 (2003)                  
          RI-JK Method:                                     
              A fully direct RI-HF algorithm: Implementation,
              optimised auxiliary basis sets, demonstration of
              accuracy and efficiency                         
              F. Weigend                                      
              Phys. Chem. Chem. Phys. 4: 4285 (2002)           
          Two-component HF and DFT with spin-orbit coupling:  
              Self-consistent treatment of spin-orbit         
              interactions with efficient Hartree-Fock and    
              density functional methods                      
              M. K. Armbruster, F. Weigend, C. van Wüllen and 
              W. Klopper                                      
              Phys. Chem. Chem. Phys. 10: 1748 (2008)         
          Relativistic all-electron 2c calculations           
              An efficient implementation of two-component    
              relativistic exact-decoupling methods for large 
              molecules                                       
              D. Peng, N. Middendorf, F. Weigend, M. Reiher   
              J. Chem. Phys. 138, 184105 (2013)               
                                         




              +--------------------------------------------------+
              |      general information about current run       |
              +--------------------------------------------------+

 
 PBE0 hybrid functional
 exchange:    3/4 (LDA+PBE) + 1/4 HF
 correlation: LDA (PW) + PBE
 A Hybrid-DFT calculation using the RI-J approximation will be carried out.
 Allocatable memory for RI due to $ricore (MB):                  5000


              +--------------------------------------------------+
              | Atomic coordinate, charge and isotop information |
              +--------------------------------------------------+

                    atomic coordinates            atom    charge  isotop
        -12.81192636    6.80104492    0.00918004    o      8.000     0
        -10.86995086    5.50807704    0.00371391    c      6.000     0
         -8.33003697    6.66578228    0.00706426    c      6.000     0
         -6.09310622    5.18675328    0.00607365    c      6.000     0
         -6.19924315    2.52905474   -0.00693726    c      6.000     0
         -8.59991651    1.37018966   -0.01425087    c      6.000     0
        -10.79927640    2.76911972   -0.00372920    c      6.000     0
         -3.01494757    6.22165129    0.01287905    s     16.000     0
         -2.04156322    3.03674896   -0.00381802    c      6.000     0
         -3.85540081    1.35467433   -0.00851764    n      7.000     0
          0.62601005    2.54833051   -0.00065382    c      6.000     0
          1.61819389   -0.65068446   -0.01414471    s     16.000     0
          2.37467602    4.30995794    0.00832396    n      7.000     0
          4.78114230    3.37398214    0.00734316    c      6.000     0
          4.84890061    0.44570971   -0.01011132    c      6.000     0
          5.88152823   -0.23670047    1.67423131    h      1.000     0
          5.88071309   -0.21973317   -1.69725599    h      1.000     0
          6.72993925    4.59231570    0.00656004    o      8.000     0
         -8.16649091   10.16293840    0.02297046    br    35.000     0
         -8.67145268   -0.69537799   -0.01861867    h      1.000     0
        -12.64437485    1.84040408   -0.00918144    h      1.000     0
 
       center of nuclear mass  :   -4.07577742    5.04167190    0.00551206
       center of nuclear charge:   -3.93050956    4.82564413    0.00475542

              +--------------------------------------------------+
              |               basis set information              |
              +--------------------------------------------------+

              we will work with the 1s 3p 5d 7f 9g ... basis set
              ...i.e. with spherical basis functions...

   type   atoms  prim   cont   basis
   ---------------------------------------------------------------------------
    o        2     24     14   def2-SV(P)   [3s2p1d|7s4p1d]
    c       10     24     14   def2-SV(P)   [3s2p1d|7s4p1d]
    s        2     36     18   def2-SV(P)   [4s3p1d|10s7p1d]
    n        2     24     14   def2-SV(P)   [3s2p1d|7s4p1d]
    h        4      4      2   def2-SV(P)   [2s|4s]
    br       1     74     32   def2-SV(P)   [5s4p3d|14s10p6d]
   ---------------------------------------------------------------------------
   total:   21    498    272
   ---------------------------------------------------------------------------

   total number of primitive shells          :   88
   total number of contracted shells         :  120
   total number of cartesian basis functions :  291
   total number of SCF-basis functions       :  272


 integral neglect threshold       :  0.11E-10
 integral storage threshold THIZE :  0.10E-04
 integral storage threshold THIME :         5

 RI-J AUXILIARY BASIS SET information:

              we will work with the 1s 3p 5d 7f 9g ... basis set
              ...i.e. with spherical basis functions...

   type   atoms  prim   cont   basis
   ---------------------------------------------------------------------------
    o        2     70     49   def2-SV(P)   [6s4p3d1f1g|12s5p4d2f1g]
    c       10     70     49   def2-SV(P)   [6s4p3d1f1g|12s5p4d2f1g]
    s        2     77     51   def2-SV(P)   [8s4p3d1f1g|14s5p5d2f1g]
    n        2     70     49   def2-SV(P)   [6s4p3d1f1g|12s5p4d2f1g]
    h        4     16     11   def2-SV(P)   [3s1p1d|5s2p1d]
    br       1     89     58   def2-SV(P)   [8s4p3d2f1g|19s5p5d3f1g]
   ---------------------------------------------------------------------------
   total:   21   1287    890
   ---------------------------------------------------------------------------

   total number of primitive shells          :  140
   total number of contracted shells         :  282
   total number of cartesian basis functions : 1101
   total number of SCF-basis functions       :  890


 symmetry group of the molecule :   c1 

 the group has the following generators :
   c1(z)

    1 symmetry operations found

 there are 1 real representations :   a   

 maximum number of shells which are related by symmetry :  1


    mo occupation :
   irrep   mo's   occupied
    a      272       81
 
 number of basis functions   :                    272
 number of occupied orbitals :                     81
 
  
           ------------------
           density functional
           ------------------
 PBE0 hybrid functional
 exchange:    3/4 (LDA+PBE) + 1/4 HF
 correlation: LDA (PW) + PBE

 iterations will be done with small grid
  
 spherical integration : Lebedev's spherical grid
 spherical gridsize    :                     5
    i.e. gridpoints    :                   590
 value for diffuse not defined
 radial integration    : Chebyshev 2nd kind (scaling 3)
 radial gridsize       :                     8
 integration cells     :                    21
 partition function    : becke
 partition sharpness   :                     3
  

 biggest AO integral is expected to be    21.668154127
  
           ------------------------
               RI-J - INFORMATION
           ------------------------
 Contributions to RI integral batches: 
  neglected integral batches:                  2258
  direct contribution:                            0
  memory contribution:                  5002
 Memory core needed for (P|Q) and Cholesky      7 MByte
 Memory core minimum needed except of (P|Q)     1 MByte
 Total minimum memory core needed (sum)         7 MByte
  
 ****************************************
 Memory allocated for RI-J   249 MByte
 ****************************************
                                            

          ------------------------
          nuclear repulsion energy  :   1711.14279842    
          ------------------------


         -----------------
         -S,T+V- integrals
         -----------------

 1e-integrals will be neglected if expon. factor < 0.114844E-11
 
   Difference densities algorithm switched on.
   The maximal number of linear combinations of
   difference densities is                    20 .

 DIIS switched on: error vector is FDS-SDF
 Max. Iterations for DIIS is     :   4
 DIIS matrix (see manual) 
    Scaling factor of diagonals  :  1.200
    threshold for scaling factor :  0.000

 scf convergence criterion : increment of total energy < .1000000D-06
                  and increment of one-electron energy < .1000000D-03

  MOs are in ASCII format !


 automatic virtual orbital shift switched on 
      shift if e(lumo)-e(homo) < 0.10000000    


 reading orbital data $scfmo  from file mos
 orbital characterization : scfconv=7

 dump of DSCF restart information has been disabled !


 Starting SCF iterations

          Overall gridpoints after grid construction =        122126

 ITERATION  ENERGY          1e-ENERGY        2e-ENERGY     NORM[dD(SAO)]  TOL
   1  -4011.7251520863    -8983.1326889     3260.2647384    0.000D+00 0.115D-10
                            Exc = -172.726574058     Coul =  3488.65051135    
                            exK = -55.6591988591    
                              N = 162.00000440    
                            current damping = 0.700
 
          max. resid. norm for Fia-block=  3.581D-03 for orbital      1a         
          max. resid. fock norm         =  6.864D-03 for orbital      1a         

 ITERATION  ENERGY          1e-ENERGY        2e-ENERGY     NORM[dD(SAO)]  TOL
   2  -4011.7252065883    -8983.1353889     3260.2673839    0.192D-01 0.726D-11
                            Exc = -172.727347068      Eck =  3432.99473095    
                              N = 162.00000439    
                            current damping = 0.650
 
          Norm of current diis error: 0.77050E-02
          max. resid. norm for Fia-block=  1.474D-03 for orbital      1a         
          max. resid. fock norm         =  2.826D-03 for orbital      1a         

 ITERATION  ENERGY          1e-ENERGY        2e-ENERGY     NORM[dD(SAO)]  TOL
   3  -4011.7252161054    -8983.1464248     3260.2784103    0.766D-02 0.571D-11
                            Exc = -172.726647286      Eck =  3433.00505758    
                              N = 162.00000443    
                            current damping = 0.500
 
          Norm of current diis error: 0.53737E-02
          max. resid. norm for Fia-block=  5.808D-04 for orbital      1a         
          max. resid. fock norm         =  1.113D-03 for orbital      1a         

 ITERATION  ENERGY          1e-ENERGY        2e-ENERGY     NORM[dD(SAO)]  TOL
   4  -4011.7252206103    -8983.1350761     3260.2670570    0.279D-02 0.524D-11
                            Exc = -172.727188034      Eck =  3432.99424508    
                              N = 162.00000442    
                            current damping = 0.550
 
          Norm of current diis error: 0.20782E-02
          max. resid. norm for Fia-block=  1.937D-04 for orbital      1a         
          max. resid. fock norm         =  3.753D-04 for orbital    241a         

 ITERATION  ENERGY          1e-ENERGY        2e-ENERGY     NORM[dD(SAO)]  TOL
   5  -4011.7252213232    -8983.1404096     3260.2723899    0.130D-02 0.506D-11
                            Exc = -172.726963068      Eck =  3432.99935297    
                              N = 162.00000443    
                            current damping = 0.600
 
          Norm of current diis error: 0.11254E-02
          max. resid. norm for Fia-block=  6.873D-05 for orbital      1a         
          max. resid. fock norm         =  1.351D-04 for orbital    243a         
          mo-orthogonalization: Cholesky decomposition

 ITERATION  ENERGY          1e-ENERGY        2e-ENERGY     NORM[dD(SAO)]  TOL
   6  -4011.7252217734    -8983.1399060     3260.2718859    0.495D-03 0.493D-11
                            Exc = -172.727023429      Eck =  3432.99890928    
                              N = 162.00000444    
                            current damping = 0.650
 
          Norm of current diis error: 0.35527E-03
          max. resid. norm for Fia-block=  2.589D-05 for orbital     62a         
          max. resid. fock norm         =  5.940D-05 for orbital    222a         

 ENERGY CONVERGED !

          Overall gridpoints after grid construction =        372368

 ITERATION  ENERGY          1e-ENERGY        2e-ENERGY     NORM[dD(SAO)]  TOL
   7  -4011.7252172670    -8983.1396705     3260.2716548    0.196D-03 0.484D-11
                            Exc = -172.727034597      Eck =  3432.99868944    
                              N = 161.99999788    
                            current damping = 0.500
 
          Norm of current diis error: 0.20172E-03
          max. resid. norm for Fia-block=  1.139D-05 for orbital     72a         
          max. resid. fock norm         =  2.344D-05 for orbital    251a         

 End of SCF iterations

   convergence criteria satisfied after     7 iterations


                  ------------------------------------------ 
                 |  total energy      =  -4011.72521726702  |
                  ------------------------------------------ 
                 :  kinetic energy    =   4002.30465373619  :
                 :  potential energy  =  -8014.02987100321  :
                 :  virial theorem    =      1.99765174257  :
                 :  wavefunction norm =      1.00000000000  :
                  .......................................... 


 <geterg> : there is no data group $energy 


 orbitals $scfmo  will be written to file mos

    irrep                 77a         78a         79a         80a         81a   
 eigenvalues H         -0.16882    -0.16283    -0.12880    -0.12012    -0.07357
            eV          -4.5939     -4.4309     -3.5048     -3.2686     -2.0020
 occupation              2.0000      2.0000      2.0000      2.0000      2.0000 

    irrep                 82a         83a         84a         85a         86a   
 eigenvalues H          0.01728     0.10880     0.11933     0.12823     0.13632
            eV           0.4701      2.9605      3.2471      3.4892      3.7095
 
 
 
 
 ==============================================================================
                           electrostatic moments
 ==============================================================================

 reference point for electrostatic moments:    0.00000   0.00000   0.00000

 
              nuc           elec       ->  total
 ------------------------------------------------------------------------------
                          charge      
 ------------------------------------------------------------------------------
         161.000000    -162.000000      -1.000000
 
 ------------------------------------------------------------------------------
                       dipole moment  
 ------------------------------------------------------------------------------
   x    -632.812040     637.835513       5.023473
   y     776.928705    -783.073156      -6.144452
   z       0.765623      -0.773796      -0.008174
 
   | dipole moment | =     7.9366 a.u. =    20.1728 debye 
 
 ------------------------------------------------------------------------------
                     quadrupole moment
 ------------------------------------------------------------------------------
  xx    7672.507855   -7846.855533    -174.347678
  yy    5796.185858   -5932.665375    -136.479517
  zz       5.713714     -98.523481     -92.809766
  xy   -4800.568565    4835.089277      34.520712
  xz      -7.250592       7.293212       0.042620
  yz      10.835473     -10.906511      -0.071039
 
     1/3  trace=    -134.545654
     anisotropy=      92.573199
 
 ==============================================================================
 


    ------------------------------------------------------------------------
         total  cpu-time :  1 minutes and  8 seconds
         total wall-time :  1 minutes and  8 seconds
    ------------------------------------------------------------------------

   ****  ridft : all done  ****


    2018-02-09 16:49:39.206 


 egrad (missouri) : TURBOMOLE V7.2 ( 21454 ) 4 Oct 2017 at 12:24:43
 Copyright (C) 2017 TURBOMOLE GmbH, Karlsruhe


    2018-02-09 16:49:39.237 




                               e g r a d

                             TURBOMOLE GmbH


             integral direct evaluation of excited state
                     and polarizability gradients
                 and first-order nonadiabatic couplings



          references (see also programs escf, dscf and ridft) 

          review 
          F. Furche and D. Rappoport,  
          "Density functional methods for excited states: 
          equilibrium structure and electronic spectra",
          ch. III of "Computational Photochemistry", ed. by 
          M. Olivucci, vol. 16 of "Theoretical and Computational 
          Chemistry", Elsevier, Amsterdam, 2005.

          nonorthonormal Krylov space methods 
          F. Furche, B. T. Krull, B. D. Nguyen, J. Kwon, 
          J. Chem. Phys. 144 (2016), 174105.

          RI-J method 
          D. Rappoport and F. Furche, 
          J. Chem. Phys. 122 (2005), 064105.

          Lagrangian method, implementation, benchmarks 
          F. Furche and R. Ahlrichs,
          J. Chem. Phys. 117 (2002), 7433;
          J. Chem. Phys. 121 (2004), 12772 (E).

          Polarizability derivatives, Raman intensities 
          D. Rappoport and F. Furche, 
          J. Chem. Phys. 126 (2007), 201104.

          First-order nonadiabatic couplings 
          R. Send and F. Furche, 
          J. Chem. Phys. 132 (2010), 044107.
                                     




              +--------------------------------------------------+
              | Atomic coordinate, charge and isotop information |
              +--------------------------------------------------+

                    atomic coordinates            atom    charge  isotop
        -12.81192636    6.80104492    0.00918004    o      8.000     0
        -10.86995086    5.50807704    0.00371391    c      6.000     0
         -8.33003697    6.66578228    0.00706426    c      6.000     0
         -6.09310622    5.18675328    0.00607365    c      6.000     0
         -6.19924315    2.52905474   -0.00693726    c      6.000     0
         -8.59991651    1.37018966   -0.01425087    c      6.000     0
        -10.79927640    2.76911972   -0.00372920    c      6.000     0
         -3.01494757    6.22165129    0.01287905    s     16.000     0
         -2.04156322    3.03674896   -0.00381802    c      6.000     0
         -3.85540081    1.35467433   -0.00851764    n      7.000     0
          0.62601005    2.54833051   -0.00065382    c      6.000     0
          1.61819389   -0.65068446   -0.01414471    s     16.000     0
          2.37467602    4.30995794    0.00832396    n      7.000     0
          4.78114230    3.37398214    0.00734316    c      6.000     0
          4.84890061    0.44570971   -0.01011132    c      6.000     0
          5.88152823   -0.23670047    1.67423131    h      1.000     0
          5.88071309   -0.21973317   -1.69725599    h      1.000     0
          6.72993925    4.59231570    0.00656004    o      8.000     0
         -8.16649091   10.16293840    0.02297046    br    35.000     0
         -8.67145268   -0.69537799   -0.01861867    h      1.000     0
        -12.64437485    1.84040408   -0.00918144    h      1.000     0
 
       center of nuclear mass  :   -4.07577742    5.04167190    0.00551206
       center of nuclear charge:   -3.93050956    4.82564413    0.00475542

              +--------------------------------------------------+
              |               basis set information              |
              +--------------------------------------------------+

              we will work with the 1s 3p 5d 7f 9g ... basis set
              ...i.e. with spherical basis functions...

   type   atoms  prim   cont   basis
   ---------------------------------------------------------------------------
    o        2     24     14   def2-SV(P)   [3s2p1d|7s4p1d]
    c       10     24     14   def2-SV(P)   [3s2p1d|7s4p1d]
    s        2     36     18   def2-SV(P)   [4s3p1d|10s7p1d]
    n        2     24     14   def2-SV(P)   [3s2p1d|7s4p1d]
    h        4      4      2   def2-SV(P)   [2s|4s]
    br       1     74     32   def2-SV(P)   [5s4p3d|14s10p6d]
   ---------------------------------------------------------------------------
   total:   21    498    272
   ---------------------------------------------------------------------------

   total number of primitive shells          :   88
   total number of contracted shells         :  120
   total number of cartesian basis functions :  291
   total number of SCF-basis functions       :  272


 residuum convergence criterium   :  0.10E-04


 integral neglect threshold       :  0.11E-10
 integral storage threshold THIZE :  0.10E-04
 integral storage threshold THIME :         5

 
             FOUND RI-J FLAG !
 
  
 AUXILIARY BASIS SET information:

              we will work with the 1s 3p 5d 7f 9g ... basis set
              ...i.e. with spherical basis functions...

   type   atoms  prim   cont   basis
   ---------------------------------------------------------------------------
    o        2     70     49   def2-SV(P)   [6s4p3d1f1g|12s5p4d2f1g]
    c       10     70     49   def2-SV(P)   [6s4p3d1f1g|12s5p4d2f1g]
    s        2     77     51   def2-SV(P)   [8s4p3d1f1g|14s5p5d2f1g]
    n        2     70     49   def2-SV(P)   [6s4p3d1f1g|12s5p4d2f1g]
    h        4     16     11   def2-SV(P)   [3s1p1d|5s2p1d]
    br       1     89     58   def2-SV(P)   [8s4p3d2f1g|19s5p5d3f1g]
   ---------------------------------------------------------------------------
   total:   21   1287    890
   ---------------------------------------------------------------------------

   total number of primitive shells          :  140
   total number of contracted shells         :  282
   total number of cartesian basis functions : 1101
   total number of SCF-basis functions       :  890

 RPA SINGLET-EXCITATION-CALCULATION 
 
             FOUND DFT-FLAG !
 

 symmetry group of the molecule :   c1 

 the group has the following generators :
   c1(z)

    1 symmetry operations found

 there are 1 real representations :   a   

 maximum number of shells which are related by symmetry :  1

 IRREP of excited state :   a   
 

 determining totally symmetric integral contributions 
    - equivalent to irreducible tensor elements - 
 which can be formed within each triple of representations :

             representation triple      contributions

              a     a     a               1

    mo occupation :
   irrep   mo's   occupied
    a      272       81
 
 number of basis functions   :                    272
 number of occupied orbitals :                     81
 
  
           ------------------
           density functional
           ------------------
 PBE0 hybrid functional
 exchange:    3/4 (LDA+PBE) + 1/4 HF
 correlation: LDA (PW) + PBE

 iterations will be done with small grid
  
 spherical integration : Lebedev's spherical grid
 spherical gridsize    :                     5
    i.e. gridpoints    :                   590
 value for diffuse not defined
 radial integration    : Chebyshev 2nd kind (scaling 3)
 radial gridsize       :                     8
 integration cells     :                    21
 partition function    : becke
 partition sharpness   :                     3
  
  
           ----------------------
               RI - INFORMATION
           ----------------------

 biggest AO integral is expected to be    21.668154127

 Threshold for integral neglect (rithr2):   0.11E-10
 Threshold for integral neglect (rithr1):   0.11E-10

 Contributions to RI integral batches: 
  neglected integral batches:                  2114
  direct contribution:                            0
  memory contribution:                  5146
 Core memory available (ricore)            5000 MiB
 Core memory needed for (P|Q) and Cholesky 7 MiB
 Core memory used for integrals            251 MiB
  
 ****************************************
 Memory allocated for RIDFT 257 MiB
 ****************************************
                                            
  MOs are in ASCII format !


 reading orbital data $scfmo  from file mos
 orbital characterization : scfconv=7
 preparing numerical integration ....
          Overall gridpoints after grid construction =        122126

 Calculating ground state density on molecular grid

 Integral of ground state density: N =   162.0000044425861    



 number of non-frozen orbitals          :   272
 number of non-frozen occupied orbitals :    81



                        -------------------
                         excitation vector 
                        -------------------


 dimension of super-tensorspace: 2

          IRREP   tensor space dimension   number of roots

           a             15471                   1

 maximum number of Davidson iterations set to   25


 machine precision: 2.22D-16


 logfile sing_a    will be constructed


                       Nonorthonormal Krylov Space Iteration


 total number of roots to be determined:   1


 maximum core memory set to  5000 MB,
 corresponding to     3796 vectors in CAO basis


 maximum number of simultaneously treated vectors (including degeneracy):        2


 Iteration IRREP Converged      Max. Euclidean
                 roots          residual norm

    1       a        0        2.992668727715550D-02
 
    2       a        0        2.371602410875995D-02
 
    3       a        0        7.476742019044309D-02
 
    4       a        0        2.221609079543842D-02
 
    5       a        0        8.867926826137898D-03
 
    6       a        0        3.800187257833228D-03
 
    7       a        0        1.685919410720959D-03
 
    8       a        0        6.114280960436225D-04
 
    9       a        0        2.745564369748628D-04
 
   10       a        0        1.267084112304543D-04
 
   11       a        0        5.075594716026094D-05
 
   12       a        0        2.145440872036625D-05
 
   13       a        1        6.940745517418153D-06
 

 converged!


 Switching to fine grid

 preparing numerical integration ....
          Overall gridpoints after grid construction =        372368

 Calculating ground state density on molecular grid

 Integral of ground state density: N =   161.9999978772904    



 Iteration IRREP Converged      Max. Euclidean
                 roots          residual norm

   14       a        1        9.680761815663081D-06
 

 converged!

 Eigenpairs written on logfile sing_a   



 IRREP   Vector     Eigenvalue           Euclidean residual norm

  a         1    8.307326916408064D-02    9.680761815663081D-06
 




                    Selection rules for point group c1  


 Subduction with respect to c1  :

    Polar vector representation: a                           

    Axial vector representation: a                           

    Symmetric second rank tensor representation: a                           




                            Ground state


 Total energy:                           -4011.725217267000    

 Charge:

               elec          nuc         total

          -162.000000   161.000000    -1.000000


 Electric dipole moment:

               elec          nuc         total   

    x      637.835513  -632.812040     5.023473    Norm:              7.936601
    y     -783.073156   776.928705    -6.144452
    z       -0.773796     0.765623    -0.008174    Norm / debye:     20.172980


 Electric quadrupole moment:

               elec          nuc         total   

   xx    -7846.855533  7672.507855  -174.347678
   yy    -5932.665375  5796.185858  -136.479517    1/3*trace:      -134.545654
   zz      -98.523481     5.713714   -92.809766
   xy     4835.089277 -4800.568565    34.520712
   xz        7.293212    -7.250592     0.042620    Anisotropy:       92.573199
   yz      -10.906511    10.835473    -0.071039



 ==============================================================================

                              I R R E P   a   

 ==============================================================================


 Excitation is electric dipole allowed

 Excitation is magnetic dipole allowed

 Excitation is electric quadrupole allowed




                         1 singlet a excitation


 Total energy:                           -4011.642143997836    

 Excitation energy:                      0.8307326916408064E-01

 Excitation energy / eV:                  2.260539638360843    

 Excitation energy / nm:                  548.4718865463977    

 Excitation energy / cm^(-1):             18232.47507082830    


 Oscillator strength:

    velocity representation:             0.3073528804955539    

    length representation:               0.3589046256386315    

    mixed representation:                0.3321245848377957    


 Rotatory strength:

    velocity representation:            -0.6817482602849847E-05

    velocity rep. / 10^(-40)erg*cm^3:   -0.4404422119099178    

    length representation:              -0.7054498236061693E-05

    length rep. / 10^(-40)erg*cm^3:     -0.4557545633789801    


 Dominant contributions:

      occ. orbital   energy / eV   virt. orbital     energy / eV   |coeff.|^2*100
       81 a              -2.00          82 a               0.47       91.8
 

 Change of electron number:

            -0.000000


 Electric transition dipole moment (velocity rep.):

    x        2.314110        Norm:                  2.355774
    y       -0.441094
    z       -0.000015        Norm / debye:          5.987825


 Electric transition dipole moment (length rep.):

    x        2.497887        Norm:                  2.545684
    y       -0.490989
    z       -0.000269        Norm / debye:          6.470532


 Magnetic transition dipole moment / i:

    x       -0.000003        Norm:                  0.001069
    y       -0.000002
    z       -0.001069        Norm / Bohr mag.:      0.293039


 Electric quadrupole transition moment:

   xx      -18.712647
   yy       -4.528469        1/3*trace:            -7.710921
   zz        0.108353
   xy       11.307160
   xz        0.003876        Anisotropy:           25.923277
   yz       -0.005531
 

 Excited state no.    1 chosen for optimization


                       ----------------------
                        CPKS right-hand side 
                       ----------------------


          IRREP   tensor space dimension   number of roots

           a             15471                   1

                          ----------------
                           CPKS equations 
                          ----------------


 logfile dipl_a    will be constructed

 Switching to coarse grid

 preparing numerical integration ....
          Overall gridpoints after grid construction =        122126


                       Nonorthonormal Krylov Space Iteration


 total number of roots to be determined:   1


 maximum core memory set to  5000 MB,
 corresponding to     7544 vectors in CAO basis


 maximum number of simultaneously treated vectors (including degeneracy):        1


 Iteration IRREP Converged      Max. Euclidean
                 roots          residual norm

    1       a        0        1.085730408527865D-01
 
    2       a        0        4.871514885739559D-02
 
    3       a        0        2.243415157304534D-02
 
    4       a        0        9.493270021717140D-03
 
    5       a        0        3.565449408674046D-03
 
    6       a        0        1.252235999109049D-03
 
    7       a        0        4.851730204484406D-04
 
    8       a        0        1.662446174863679D-04
 
    9       a        0        8.248028833805674D-05
 
   10       a        0        1.917620803354727D-05
 
   11       a        1        8.113520705212291D-06
 

 converged!


 Switching to fine grid

 preparing numerical integration ....
          Overall gridpoints after grid construction =        372368

 Iteration IRREP Converged      Max. Euclidean
                 roots          residual norm

   12       a        0        1.630827811105396D-05
 

 NOTE: Residual norms are larger than 1.00D-05 due to mgrid option!

 Eigenpairs written on logfile dipl_a   



 IRREP   Vector     Frequency            Euclidean residual norm

  a         1    0.000000000000000D+00    1.630827811105396D-05
 

                          -------------------
                           relaxed densities 
                          -------------------


    ----------------------------------------
     S+T+V CONTRIBUTIONS TO ENERGY GRADIENT 
    ----------------------------------------

 1e-integral 1st. derivatives will be neglected if expon. factor < 0.100000E-10


    -----------------------------------------------
     TWO ELECTRON CONTRIBUTIONS TO ENERGY GRADIENT 
    -----------------------------------------------

 setting up bound for integral derivative estimation

 increment for numerical differentiation : 0.00050000

 biggest AO integral is expected to be    21.668154127
 biggest cartesian 1st derivative AO integral is expected to be    83.347447328

 biggest 1-particle AO density matrix element is expected to be    3.2067973956

 core memory to be involved in 2e-gradient :
   symmetry shell pair data              :         1
   two particle density+dens. estimates  :      8556
   derivative integrals                  :      8498
   derivative integral bound             :     21780
   totally                               :     30276


 setting up bound for integral derivative estimation

 increment for numerical differentiation : 0.00050000

 biggest AO integral is expected to be    21.668154127
 biggest cartesian 1st derivative AO integral is expected to be    83.347447328

 2e-integral 1st. derivatives will be neglected if expon. factor < 0.100000E-06
 outer boundary for 2e-integral derivative neglection is 0.162071E-08

 Integrated ground state density     :   161.9999978772895    


          ------------------------------------------------
           cartesian gradient of the energy (hartree/bohr)
          ------------------------------------------------

  ATOM      1 o           2 c           3 c           4 c           5 c 
dE/dx  0.3119859D-02 -0.4110237D-02 -0.2695279D-03  0.2277957D-02 -0.3006955D-02
dE/dy -0.2227772D-02  0.3509928D-02  0.2409728D-02 -0.1605302D-02  0.3535501D-03
dE/dz  0.3618918D-04 -0.1122002D-03 -0.2058373D-03  0.2274946D-03 -0.5992146D-04

  ATOM      6 c           7 c           8 s           9 c          10 n 
dE/dx -0.2062171D-02  0.2404889D-02  0.1049566D-03  0.1911340D-03  0.1009229D-02
dE/dy  0.7766127D-03 -0.3226809D-02  0.5838908D-03  0.1981799D-02 -0.2038672D-02
dE/dz -0.4882422D-03  0.4223270D-03  0.1167196D-03 -0.4238437D-03  0.2710801D-03

  ATOM     11 c          12 s          13 n          14 c          15 c 
dE/dx -0.2423249D-02 -0.3713618D-03  0.2675959D-02  0.2956512D-02 -0.9665045D-03
dE/dy -0.3397763D-02  0.7240159D-03  0.1485539D-02  0.1192260D-02  0.1303732D-02
dE/dz  0.1256102D-03  0.2832203D-04 -0.2296280D-03  0.8936513D-03 -0.1377608D-02

  ATOM     16 h          17 h          18 o          19 br         20 h 
dE/dx  0.6322834D-03  0.8677997D-04 -0.2616645D-02 -0.2217151D-03  0.4787810D-04
dE/dy -0.2688562D-03 -0.4683276D-04 -0.1459895D-02 -0.1475386D-02  0.9924699D-03
dE/dz  0.9498338D-03  0.5833584D-04 -0.3257087D-03  0.2593744D-04  0.1427148D-03

  ATOM     21 h 
dE/dx  0.5281984D-03
dE/dy  0.4198198D-03
dE/dz -0.7519141D-04
 
 resulting FORCE  (fx,fy,fz) = (-.127D-04,-.139D-04,0.348D-07)
 resulting MOMENT (mx,my,mz) = (0.178D-04,0.294D-04,0.103D-03)


 **********************************************************************
  |maximum component of gradient| : 0.41102375E-02  (atom  2 c )       
   gradient norm                  : 0.12459338E-01
 **********************************************************************

 exx =      -0.006100 eyy =      -0.007835 ezz =       0.001512
 eyz =      -0.000412 exz =       0.000988 exy =       0.009123


 <getgrd> : data group $grad  is missing 

   ***  cartesian gradients written onto <gradient>  ***
 
 
 
 ==============================================================================
                           electrostatic moments
 ==============================================================================

 reference point for electrostatic moments:    0.00000   0.00000   0.00000

 
              nuc           gs,e       ->  gs,tot          excit     ->  total
 ------------------------------------------------------------------------------
                          charge      
 ------------------------------------------------------------------------------
         161.000000    -162.000000      -1.000000       0.000000      -1.000000
 
 ------------------------------------------------------------------------------
                       dipole moment  
 ------------------------------------------------------------------------------
   x    -632.812040     637.835513       5.023473      -1.239366       3.784108
   y     776.928705    -783.073156      -6.144452       1.270036      -4.874415
   z       0.765623      -0.773796      -0.008174       0.003718      -0.004455
 
   | dipole moment | =     6.1709 a.u. =    15.6847 debye 
 
 ------------------------------------------------------------------------------
                     quadrupole moment
 ------------------------------------------------------------------------------
  xx    7672.507855   -7846.855533    -174.347678       2.128531    -172.219147
  yy    5796.185858   -5932.665375    -136.479517      13.572213    -122.907303
  zz       5.713714     -98.523481     -92.809766       0.199701     -92.610065
  xy   -4800.568565    4835.089277      34.520712     -12.121441      22.399271
  xz      -7.250592       7.293212       0.042620      -0.028396       0.014225
  yz      10.835473     -10.906511      -0.071039       0.028274      -0.042765
 
     1/3  trace=    -129.245505
     anisotropy=      79.679240
 
 ==============================================================================
 


    ------------------------------------------------------------------------
         total  cpu-time :  6 minutes and 23 seconds
         total wall-time :  6 minutes and 23 seconds
    ------------------------------------------------------------------------

   ****  egrad : all done  ****


    2018-02-09 16:56:02.310 

$dipole from egrad
  x     3.78410778231239    y    -4.87441532077264    z    -0.00445535556557    a.u.
   | dipole | =   15.6848602155  debye
/work/bdnguye2/luc_project/7_brluc/ex_geo_opt/save/numforce/KraftWerk/p043
