 operating system is UNIX !

 ridft (missouri) : TURBOMOLE V7.2 ( 21454 ) 4 Oct 2017 at 12:48:15
 Copyright (C) 2017 TURBOMOLE GmbH, Karlsruhe


    2018-02-09 16:56:02.385 



                                  r i d f t

                        DFT program with RI approximation 
                                for coulomb part 




                                                 
                                 References:     
                                                 
          TURBOMOLE:                             
              R. Ahlrichs, M. Baer, M. Haeser, H. Horn, and
              C. Koelmel
              Electronic structure calculations on workstation
              computers: the program system TURBOMOLE
              Chem. Phys. Lett. 162: 165 (1989)
          Density Functional:                              
              O. Treutler and R. Ahlrichs                      
              Efficient Molecular Numerical Integration Schemes
              J. Chem. Phys. 102: 346 (1995)                   
          Parallel Version:                                
              Performance of parallel TURBOMOLE for Density    
              Functional Calculations                          
              M. v. Arnim and R. Ahlrichs                      
              J. Comp. Chem. 19: 1746 (1998)                   
          RI-J Method:                                     
              Auxiliary Basis Sets to approximate Coulomb      
              Potentials                                       
              Chem. Phys. Lett. 240: 283 (1995)                
              K. Eichkorn, O. Treutler, H. Oehm, M. Haeser     
              and R. Ahlrichs                                  
              Chem. Phys. Lett. 242: 652 (1995)                
                                                           
              Auxiliary Basis Sets for Main Row Atoms and their
              Use to approximate Coulomb Potentials            
              K. Eichkorn, F. Weigend, O. Treutler and         
              R. Ahlrichs                                      
              Theo. Chem. Acc. 97: 119 (1997)                   
                                                           
              Accurate Coulomb-fitting basis sets for H to Rn 
              F. Weigend                                        
              Phys. Chem. Chem. Phys. 8: 1057 (2006)            
                                                           
          Multipole accelerated RI-J (MARI-J):             
              Fast evaluation of the Coulomb potential for     
              electron densities using multipole accelerated   
              resolution of identity approximation             
              M. Sierka, A. Hogekamp and R. Ahlrichs           
              J. Chem. Phys. 118: 9136 (2003)                  
          RI-JK Method:                                     
              A fully direct RI-HF algorithm: Implementation,
              optimised auxiliary basis sets, demonstration of
              accuracy and efficiency                         
              F. Weigend                                      
              Phys. Chem. Chem. Phys. 4: 4285 (2002)           
          Two-component HF and DFT with spin-orbit coupling:  
              Self-consistent treatment of spin-orbit         
              interactions with efficient Hartree-Fock and    
              density functional methods                      
              M. K. Armbruster, F. Weigend, C. van Wüllen and 
              W. Klopper                                      
              Phys. Chem. Chem. Phys. 10: 1748 (2008)         
          Relativistic all-electron 2c calculations           
              An efficient implementation of two-component    
              relativistic exact-decoupling methods for large 
              molecules                                       
              D. Peng, N. Middendorf, F. Weigend, M. Reiher   
              J. Chem. Phys. 138, 184105 (2013)               
                                         




              +--------------------------------------------------+
              |      general information about current run       |
              +--------------------------------------------------+

 
 PBE0 hybrid functional
 exchange:    3/4 (LDA+PBE) + 1/4 HF
 correlation: LDA (PW) + PBE
 A Hybrid-DFT calculation using the RI-J approximation will be carried out.
 Allocatable memory for RI due to $ricore (MB):                  5000


              +--------------------------------------------------+
              | Atomic coordinate, charge and isotop information |
              +--------------------------------------------------+

                    atomic coordinates            atom    charge  isotop
        -12.81214074    6.80096603    0.00884422    o      8.000     0
        -10.87054715    5.50829447    0.00259743    c      6.000     0
         -8.32879706    6.66479349    0.00909104    c      6.000     0
         -6.09304122    5.18857540    0.00772846    c      6.000     0
         -6.19887424    2.53191594   -0.00873561    c      6.000     0
         -8.59715376    1.36664780   -0.01319966    c      6.000     0
        -10.80300488    2.76746924   -0.00565721    c      6.000     0
         -3.01895111    6.22286667    0.00824429    s     16.000     0
         -2.03736422    3.03381993    0.00158370    c      6.000     0
         -3.85487971    1.35864782   -0.00441468    n      7.000     0
          0.62639274    2.55429127   -0.00436800    c      6.000     0
          1.62317055   -0.65694464   -0.01271587    s     16.000     0
          2.36881905    4.30690237    0.00578569    n      7.000     0
          4.77487273    3.37615446    0.00080048    c      6.000     0
          4.85488280    0.44208328   -0.00313347    c      6.000     0
          5.88265635   -0.23209006    1.67964696    h      1.000     0
          5.88106078   -0.21943717   -1.69711054    h      1.000     0
          6.73083894    4.59160945    0.00772507    o      8.000     0
         -8.16820660   10.16350805    0.02088882    br    35.000     0
         -8.67229545   -0.69661506   -0.02098989    h      1.000     0
        -12.64368675    1.83738933   -0.01422097    h      1.000     0
 
       center of nuclear mass  :   -4.07612909    5.04133151    0.00486718
       center of nuclear charge:   -3.93081136    4.82528266    0.00415704

              +--------------------------------------------------+
              |               basis set information              |
              +--------------------------------------------------+

              we will work with the 1s 3p 5d 7f 9g ... basis set
              ...i.e. with spherical basis functions...

   type   atoms  prim   cont   basis
   ---------------------------------------------------------------------------
    o        2     24     14   def2-SV(P)   [3s2p1d|7s4p1d]
    c       10     24     14   def2-SV(P)   [3s2p1d|7s4p1d]
    s        2     36     18   def2-SV(P)   [4s3p1d|10s7p1d]
    n        2     24     14   def2-SV(P)   [3s2p1d|7s4p1d]
    h        4      4      2   def2-SV(P)   [2s|4s]
    br       1     74     32   def2-SV(P)   [5s4p3d|14s10p6d]
   ---------------------------------------------------------------------------
   total:   21    498    272
   ---------------------------------------------------------------------------

   total number of primitive shells          :   88
   total number of contracted shells         :  120
   total number of cartesian basis functions :  291
   total number of SCF-basis functions       :  272


 integral neglect threshold       :  0.11E-10
 integral storage threshold THIZE :  0.10E-04
 integral storage threshold THIME :         5

 RI-J AUXILIARY BASIS SET information:

              we will work with the 1s 3p 5d 7f 9g ... basis set
              ...i.e. with spherical basis functions...

   type   atoms  prim   cont   basis
   ---------------------------------------------------------------------------
    o        2     70     49   def2-SV(P)   [6s4p3d1f1g|12s5p4d2f1g]
    c       10     70     49   def2-SV(P)   [6s4p3d1f1g|12s5p4d2f1g]
    s        2     77     51   def2-SV(P)   [8s4p3d1f1g|14s5p5d2f1g]
    n        2     70     49   def2-SV(P)   [6s4p3d1f1g|12s5p4d2f1g]
    h        4     16     11   def2-SV(P)   [3s1p1d|5s2p1d]
    br       1     89     58   def2-SV(P)   [8s4p3d2f1g|19s5p5d3f1g]
   ---------------------------------------------------------------------------
   total:   21   1287    890
   ---------------------------------------------------------------------------

   total number of primitive shells          :  140
   total number of contracted shells         :  282
   total number of cartesian basis functions : 1101
   total number of SCF-basis functions       :  890


 symmetry group of the molecule :   c1 

 the group has the following generators :
   c1(z)

    1 symmetry operations found

 there are 1 real representations :   a   

 maximum number of shells which are related by symmetry :  1


    mo occupation :
   irrep   mo's   occupied
    a      272       81
 
 number of basis functions   :                    272
 number of occupied orbitals :                     81
 
  
           ------------------
           density functional
           ------------------
 PBE0 hybrid functional
 exchange:    3/4 (LDA+PBE) + 1/4 HF
 correlation: LDA (PW) + PBE

 iterations will be done with small grid
  
 spherical integration : Lebedev's spherical grid
 spherical gridsize    :                     5
    i.e. gridpoints    :                   590
 value for diffuse not defined
 radial integration    : Chebyshev 2nd kind (scaling 3)
 radial gridsize       :                     8
 integration cells     :                    21
 partition function    : becke
 partition sharpness   :                     3
  

 biggest AO integral is expected to be    21.668154127
  
           ------------------------
               RI-J - INFORMATION
           ------------------------
 Contributions to RI integral batches: 
  neglected integral batches:                  2258
  direct contribution:                            0
  memory contribution:                  5002
 Memory core needed for (P|Q) and Cholesky      7 MByte
 Memory core minimum needed except of (P|Q)     1 MByte
 Total minimum memory core needed (sum)         7 MByte
  
 ****************************************
 Memory allocated for RI-J   249 MByte
 ****************************************
                                            

          ------------------------
          nuclear repulsion energy  :   1710.90169013    
          ------------------------


         -----------------
         -S,T+V- integrals
         -----------------

 1e-integrals will be neglected if expon. factor < 0.114844E-11
 
   Difference densities algorithm switched on.
   The maximal number of linear combinations of
   difference densities is                    20 .

 DIIS switched on: error vector is FDS-SDF
 Max. Iterations for DIIS is     :   4
 DIIS matrix (see manual) 
    Scaling factor of diagonals  :  1.200
    threshold for scaling factor :  0.000

 scf convergence criterion : increment of total energy < .1000000D-06
                  and increment of one-electron energy < .1000000D-03

  MOs are in ASCII format !


 automatic virtual orbital shift switched on 
      shift if e(lumo)-e(homo) < 0.10000000    


 reading orbital data $scfmo  from file mos
 orbital characterization : scfconv=7

 dump of DSCF restart information has been disabled !


 Starting SCF iterations

          Overall gridpoints after grid construction =        122132

 ITERATION  ENERGY          1e-ENERGY        2e-ENERGY     NORM[dD(SAO)]  TOL
   1  -4011.7251701784    -8982.6430243     3260.0161640    0.000D+00 0.115D-10
                            Exc = -172.725787788     Coul =  3488.40090428    
                            exK = -55.6589525359    
                              N = 162.00000490    
                            current damping = 0.700
 
          max. resid. norm for Fia-block=  4.040D-03 for orbital      1a         
          max. resid. fock norm         =  6.924D-03 for orbital      1a         

 ITERATION  ENERGY          1e-ENERGY        2e-ENERGY     NORM[dD(SAO)]  TOL
   2  -4011.7252309168    -8982.6519761     3260.0250551    0.234D-01 0.726D-11
                            Exc = -172.726794227      Eck =  3432.75184930    
                              N = 162.00000489    
                            current damping = 0.650
 
          Norm of current diis error: 0.84649E-02
          max. resid. norm for Fia-block=  1.664D-03 for orbital      1a         
          max. resid. fock norm         =  2.851D-03 for orbital      1a         

 ITERATION  ENERGY          1e-ENERGY        2e-ENERGY     NORM[dD(SAO)]  TOL
   3  -4011.7252416173    -8982.6498637     3260.0229319    0.759D-02 0.568D-11
                            Exc = -172.726341300      Eck =  3432.74927321    
                              N = 162.00000486    
                            current damping = 0.600
 
          Norm of current diis error: 0.58375E-02
          max. resid. norm for Fia-block=  6.555D-04 for orbital      1a         
          max. resid. fock norm         =  1.123D-03 for orbital      1a         

 ITERATION  ENERGY          1e-ENERGY        2e-ENERGY     NORM[dD(SAO)]  TOL
   4  -4011.7252468875    -8982.6507165     3260.0237794    0.245D-02 0.523D-11
                            Exc = -172.726644433      Eck =  3432.75042388    
                              N = 162.00000487    
                            current damping = 0.650
 
          Norm of current diis error: 0.17291E-02
          max. resid. norm for Fia-block=  2.459D-04 for orbital      1a         
          max. resid. fock norm         =  4.212D-04 for orbital      1a         

 ITERATION  ENERGY          1e-ENERGY        2e-ENERGY     NORM[dD(SAO)]  TOL
   5  -4011.7252474372    -8982.6523648     3260.0254273    0.112D-02 0.500D-11
                            Exc = -172.726651956      Eck =  3432.75207923    
                              N = 162.00000486    
                            current damping = 0.500
 
          Norm of current diis error: 0.91228E-03
          max. resid. norm for Fia-block=  9.685D-05 for orbital      1a         
          max. resid. fock norm         =  1.659D-04 for orbital      1a         
          mo-orthogonalization: Cholesky decomposition

 ITERATION  ENERGY          1e-ENERGY        2e-ENERGY     NORM[dD(SAO)]  TOL
   6  -4011.7252478205    -8982.6517952     3260.0248573    0.448D-03 0.484D-11
                            Exc = -172.726638133      Eck =  3432.75149541    
                              N = 162.00000488    
                            current damping = 0.550
 
          Norm of current diis error: 0.30581E-03
          max. resid. norm for Fia-block=  3.228D-05 for orbital      1a         
          max. resid. fock norm         =  6.665D-05 for orbital    241a         

 ITERATION  ENERGY          1e-ENERGY        2e-ENERGY     NORM[dD(SAO)]  TOL
   7  -4011.7252478304    -8982.6513899     3260.0244519    0.242D-03 0.474D-11
                            Exc = -172.726658392      Eck =  3432.75111029    
                              N = 162.00000488    
                            current damping = 0.400
 
          Norm of current diis error: 0.22771E-03
          max. resid. norm for Fia-block=  1.475D-05 for orbital     81a         
          max. resid. fock norm         =  2.466D-05 for orbital     51a         

 ITERATION  ENERGY          1e-ENERGY        2e-ENERGY     NORM[dD(SAO)]  TOL
   8  -4011.7252478390    -8982.6519621     3260.0250241    0.940D-04 0.468D-11
                            Exc = -172.726649840      Eck =  3432.75167397    
                              N = 162.00000488    
                            current damping = 0.450
 
          Norm of current diis error: 0.10953E-03
          max. resid. norm for Fia-block=  7.251D-06 for orbital     80a         
          max. resid. fock norm         =  1.191D-05 for orbital    257a         

 ENERGY CONVERGED !

          Overall gridpoints after grid construction =        372371

 ITERATION  ENERGY          1e-ENERGY        2e-ENERGY     NORM[dD(SAO)]  TOL
   9  -4011.7252429311    -8982.6517998     3260.0248667    0.251D-04 0.463D-11
                            Exc = -172.726642347      Eck =  3432.75150909    
                              N = 161.99999768    
                            current damping = 0.500
 
          Norm of current diis error: 0.61065E-04
          max. resid. norm for Fia-block=  3.073D-06 for orbital     68a         
          max. resid. fock norm         =  5.238D-06 for orbital     68a         

 End of SCF iterations

   convergence criteria satisfied after     9 iterations


                  ------------------------------------------ 
                 |  total energy      =  -4011.72524293105  |
                  ------------------------------------------ 
                 :  kinetic energy    =   4002.30198290759  :
                 :  potential energy  =  -8014.02722583864  :
                 :  virial theorem    =      1.99765107044  :
                 :  wavefunction norm =      1.00000000000  :
                  .......................................... 


 <geterg> : there is no data group $energy 


 orbitals $scfmo  will be written to file mos

    irrep                 77a         78a         79a         80a         81a   
 eigenvalues H         -0.16879    -0.16274    -0.12868    -0.12038    -0.07387
            eV          -4.5930     -4.4285     -3.5017     -3.2758     -2.0103
 occupation              2.0000      2.0000      2.0000      2.0000      2.0000 

    irrep                 82a         83a         84a         85a         86a   
 eigenvalues H          0.01704     0.10838     0.11911     0.12828     0.13604
            eV           0.4636      2.9492      3.2411      3.4906      3.7020
 
 
 
 
 ==============================================================================
                           electrostatic moments
 ==============================================================================

 reference point for electrostatic moments:    0.00000   0.00000   0.00000

 
              nuc           elec       ->  total
 ------------------------------------------------------------------------------
                          charge      
 ------------------------------------------------------------------------------
         161.000000    -162.000000      -1.000000
 
 ------------------------------------------------------------------------------
                       dipole moment  
 ------------------------------------------------------------------------------
   x    -632.860629     637.870064       5.009434
   y     776.870508    -782.999049      -6.128541
   z       0.669283      -0.680591      -0.011307
 
   | dipole moment | =     7.9154 a.u. =    20.1189 debye 
 
 ------------------------------------------------------------------------------
                     quadrupole moment
 ------------------------------------------------------------------------------
  xx    7674.074942   -7848.318611    -174.243669
  yy    5796.950206   -5933.386749    -136.436543
  zz       5.725244     -98.533792     -92.808549
  xy   -4802.135926    4836.666121      34.530195
  xz      -6.351878       6.406314       0.054436
  yz       9.578502      -9.661263      -0.082762
 
     1/3  trace=    -134.496254
     anisotropy=      92.516281
 
 ==============================================================================
 


    ------------------------------------------------------------------------
         total  cpu-time :  1 minutes and 16 seconds
         total wall-time :  1 minutes and 16 seconds
    ------------------------------------------------------------------------

   ****  ridft : all done  ****


    2018-02-09 16:57:18.797 


 egrad (missouri) : TURBOMOLE V7.2 ( 21454 ) 4 Oct 2017 at 12:24:43
 Copyright (C) 2017 TURBOMOLE GmbH, Karlsruhe


    2018-02-09 16:57:18.815 




                               e g r a d

                             TURBOMOLE GmbH


             integral direct evaluation of excited state
                     and polarizability gradients
                 and first-order nonadiabatic couplings



          references (see also programs escf, dscf and ridft) 

          review 
          F. Furche and D. Rappoport,  
          "Density functional methods for excited states: 
          equilibrium structure and electronic spectra",
          ch. III of "Computational Photochemistry", ed. by 
          M. Olivucci, vol. 16 of "Theoretical and Computational 
          Chemistry", Elsevier, Amsterdam, 2005.

          nonorthonormal Krylov space methods 
          F. Furche, B. T. Krull, B. D. Nguyen, J. Kwon, 
          J. Chem. Phys. 144 (2016), 174105.

          RI-J method 
          D. Rappoport and F. Furche, 
          J. Chem. Phys. 122 (2005), 064105.

          Lagrangian method, implementation, benchmarks 
          F. Furche and R. Ahlrichs,
          J. Chem. Phys. 117 (2002), 7433;
          J. Chem. Phys. 121 (2004), 12772 (E).

          Polarizability derivatives, Raman intensities 
          D. Rappoport and F. Furche, 
          J. Chem. Phys. 126 (2007), 201104.

          First-order nonadiabatic couplings 
          R. Send and F. Furche, 
          J. Chem. Phys. 132 (2010), 044107.
                                     




              +--------------------------------------------------+
              | Atomic coordinate, charge and isotop information |
              +--------------------------------------------------+

                    atomic coordinates            atom    charge  isotop
        -12.81214074    6.80096603    0.00884422    o      8.000     0
        -10.87054715    5.50829447    0.00259743    c      6.000     0
         -8.32879706    6.66479349    0.00909104    c      6.000     0
         -6.09304122    5.18857540    0.00772846    c      6.000     0
         -6.19887424    2.53191594   -0.00873561    c      6.000     0
         -8.59715376    1.36664780   -0.01319966    c      6.000     0
        -10.80300488    2.76746924   -0.00565721    c      6.000     0
         -3.01895111    6.22286667    0.00824429    s     16.000     0
         -2.03736422    3.03381993    0.00158370    c      6.000     0
         -3.85487971    1.35864782   -0.00441468    n      7.000     0
          0.62639274    2.55429127   -0.00436800    c      6.000     0
          1.62317055   -0.65694464   -0.01271587    s     16.000     0
          2.36881905    4.30690237    0.00578569    n      7.000     0
          4.77487273    3.37615446    0.00080048    c      6.000     0
          4.85488280    0.44208328   -0.00313347    c      6.000     0
          5.88265635   -0.23209006    1.67964696    h      1.000     0
          5.88106078   -0.21943717   -1.69711054    h      1.000     0
          6.73083894    4.59160945    0.00772507    o      8.000     0
         -8.16820660   10.16350805    0.02088882    br    35.000     0
         -8.67229545   -0.69661506   -0.02098989    h      1.000     0
        -12.64368675    1.83738933   -0.01422097    h      1.000     0
 
       center of nuclear mass  :   -4.07612909    5.04133151    0.00486718
       center of nuclear charge:   -3.93081136    4.82528266    0.00415704

              +--------------------------------------------------+
              |               basis set information              |
              +--------------------------------------------------+

              we will work with the 1s 3p 5d 7f 9g ... basis set
              ...i.e. with spherical basis functions...

   type   atoms  prim   cont   basis
   ---------------------------------------------------------------------------
    o        2     24     14   def2-SV(P)   [3s2p1d|7s4p1d]
    c       10     24     14   def2-SV(P)   [3s2p1d|7s4p1d]
    s        2     36     18   def2-SV(P)   [4s3p1d|10s7p1d]
    n        2     24     14   def2-SV(P)   [3s2p1d|7s4p1d]
    h        4      4      2   def2-SV(P)   [2s|4s]
    br       1     74     32   def2-SV(P)   [5s4p3d|14s10p6d]
   ---------------------------------------------------------------------------
   total:   21    498    272
   ---------------------------------------------------------------------------

   total number of primitive shells          :   88
   total number of contracted shells         :  120
   total number of cartesian basis functions :  291
   total number of SCF-basis functions       :  272


 residuum convergence criterium   :  0.10E-04


 integral neglect threshold       :  0.11E-10
 integral storage threshold THIZE :  0.10E-04
 integral storage threshold THIME :         5

 
             FOUND RI-J FLAG !
 
  
 AUXILIARY BASIS SET information:

              we will work with the 1s 3p 5d 7f 9g ... basis set
              ...i.e. with spherical basis functions...

   type   atoms  prim   cont   basis
   ---------------------------------------------------------------------------
    o        2     70     49   def2-SV(P)   [6s4p3d1f1g|12s5p4d2f1g]
    c       10     70     49   def2-SV(P)   [6s4p3d1f1g|12s5p4d2f1g]
    s        2     77     51   def2-SV(P)   [8s4p3d1f1g|14s5p5d2f1g]
    n        2     70     49   def2-SV(P)   [6s4p3d1f1g|12s5p4d2f1g]
    h        4     16     11   def2-SV(P)   [3s1p1d|5s2p1d]
    br       1     89     58   def2-SV(P)   [8s4p3d2f1g|19s5p5d3f1g]
   ---------------------------------------------------------------------------
   total:   21   1287    890
   ---------------------------------------------------------------------------

   total number of primitive shells          :  140
   total number of contracted shells         :  282
   total number of cartesian basis functions : 1101
   total number of SCF-basis functions       :  890

 RPA SINGLET-EXCITATION-CALCULATION 
 
             FOUND DFT-FLAG !
 

 symmetry group of the molecule :   c1 

 the group has the following generators :
   c1(z)

    1 symmetry operations found

 there are 1 real representations :   a   

 maximum number of shells which are related by symmetry :  1

 IRREP of excited state :   a   
 

 determining totally symmetric integral contributions 
    - equivalent to irreducible tensor elements - 
 which can be formed within each triple of representations :

             representation triple      contributions

              a     a     a               1

    mo occupation :
   irrep   mo's   occupied
    a      272       81
 
 number of basis functions   :                    272
 number of occupied orbitals :                     81
 
  
           ------------------
           density functional
           ------------------
 PBE0 hybrid functional
 exchange:    3/4 (LDA+PBE) + 1/4 HF
 correlation: LDA (PW) + PBE

 iterations will be done with small grid
  
 spherical integration : Lebedev's spherical grid
 spherical gridsize    :                     5
    i.e. gridpoints    :                   590
 value for diffuse not defined
 radial integration    : Chebyshev 2nd kind (scaling 3)
 radial gridsize       :                     8
 integration cells     :                    21
 partition function    : becke
 partition sharpness   :                     3
  
  
           ----------------------
               RI - INFORMATION
           ----------------------

 biggest AO integral is expected to be    21.668154127

 Threshold for integral neglect (rithr2):   0.11E-10
 Threshold for integral neglect (rithr1):   0.11E-10

 Contributions to RI integral batches: 
  neglected integral batches:                  2114
  direct contribution:                            0
  memory contribution:                  5146
 Core memory available (ricore)            5000 MiB
 Core memory needed for (P|Q) and Cholesky 7 MiB
 Core memory used for integrals            251 MiB
  
 ****************************************
 Memory allocated for RIDFT 257 MiB
 ****************************************
                                            
  MOs are in ASCII format !


 reading orbital data $scfmo  from file mos
 orbital characterization : scfconv=7
 preparing numerical integration ....
          Overall gridpoints after grid construction =        122132

 Calculating ground state density on molecular grid

 Integral of ground state density: N =   162.0000048815773    



 number of non-frozen orbitals          :   272
 number of non-frozen occupied orbitals :    81



                        -------------------
                         excitation vector 
                        -------------------


 dimension of super-tensorspace: 2

          IRREP   tensor space dimension   number of roots

           a             15471                   1

 maximum number of Davidson iterations set to   25


 machine precision: 2.22D-16


 logfile sing_a    will be constructed


                       Nonorthonormal Krylov Space Iteration


 total number of roots to be determined:   1


 maximum core memory set to  5000 MB,
 corresponding to     3796 vectors in CAO basis


 maximum number of simultaneously treated vectors (including degeneracy):        2


 Iteration IRREP Converged      Max. Euclidean
                 roots          residual norm

    1       a        0        3.015462235656620D-02
 
    2       a        0        5.053700741075690D-02
 
    3       a        0        4.925903062406516D-02
 
    4       a        0        2.125037696635170D-02
 
    5       a        0        7.467345028430812D-03
 
    6       a        0        3.178153109762528D-03
 
    7       a        0        1.528916528769141D-03
 
    8       a        0        6.490344795861274D-04
 
    9       a        0        2.900893689284391D-04
 
   10       a        0        1.087098493078549D-04
 
   11       a        0        5.902955907160780D-05
 
   12       a        0        1.958795869554158D-05
 
   13       a        1        8.663209928654865D-06
 

 converged!


 Switching to fine grid

 preparing numerical integration ....
          Overall gridpoints after grid construction =        372371

 Calculating ground state density on molecular grid

 Integral of ground state density: N =   161.9999976848029    



 Iteration IRREP Converged      Max. Euclidean
                 roots          residual norm

   14       a        0        1.075611550203692D-05
 

 NOTE: Residual norms are larger than 1.00D-05 due to mgrid option!

 Eigenpairs written on logfile sing_a   



 IRREP   Vector     Eigenvalue           Euclidean residual norm

  a         1    8.309750177938550D-02    1.075611550203692D-05
 




                    Selection rules for point group c1  


 Subduction with respect to c1  :

    Polar vector representation: a                           

    Axial vector representation: a                           

    Symmetric second rank tensor representation: a                           




                            Ground state


 Total energy:                           -4011.725242931000    

 Charge:

               elec          nuc         total

          -162.000000   161.000000    -1.000000


 Electric dipole moment:

               elec          nuc         total   

    x      637.870064  -632.860629     5.009434    Norm:              7.915401
    y     -782.999049   776.870508    -6.128541
    z       -0.680591     0.669283    -0.011307    Norm / debye:     20.119096


 Electric quadrupole moment:

               elec          nuc         total   

   xx    -7848.318611  7674.074942  -174.243669
   yy    -5933.386749  5796.950206  -136.436543    1/3*trace:      -134.496254
   zz      -98.533792     5.725244   -92.808549
   xy     4836.666121 -4802.135926    34.530195
   xz        6.406314    -6.351878     0.054436    Anisotropy:       92.516281
   yz       -9.661263     9.578502    -0.082762



 ==============================================================================

                              I R R E P   a   

 ==============================================================================


 Excitation is electric dipole allowed

 Excitation is magnetic dipole allowed

 Excitation is electric quadrupole allowed




                         1 singlet a excitation


 Total energy:                           -4011.642145429221    

 Excitation energy:                      0.8309750177938550E-01

 Excitation energy / eV:                  2.261199041656139    

 Excitation energy / nm:                  548.3119430108208    

 Excitation energy / cm^(-1):             18237.79351512323    


 Oscillator strength:

    velocity representation:             0.3057274565551197    

    length representation:               0.3568585762621057    

    mixed representation:                0.3302990636003253    


 Rotatory strength:

    velocity representation:            -0.5962348970629731E-05

    velocity rep. / 10^(-40)erg*cm^3:   -0.3851964605975274    

    length representation:              -0.6199614462997835E-05

    length rep. / 10^(-40)erg*cm^3:     -0.4005249541715073    


 Dominant contributions:

      occ. orbital   energy / eV   virt. orbital     energy / eV   |coeff.|^2*100
       81 a              -2.01          82 a               0.46       91.6
 

 Change of electron number:

            -0.000000


 Electric transition dipole moment (velocity rep.):

    x        2.308321        Norm:                  2.349194
    y       -0.436312
    z       -0.000423        Norm / debye:          5.971100


 Electric transition dipole moment (length rep.):

    x        2.490991        Norm:                  2.538047
    y       -0.486466
    z       -0.000653        Norm / debye:          6.451122


 Magnetic transition dipole moment / i:

    x       -0.000003        Norm:                  0.001076
    y       -0.000001
    z       -0.001076        Norm / Bohr mag.:      0.294799


 Electric quadrupole transition moment:

   xx      -18.660909
   yy       -4.491846        1/3*trace:            -7.681818
   zz        0.107301
   xy       11.265203
   xz        0.000610        Anisotropy:           25.841723
   yz       -0.006746
 

 Excited state no.    1 chosen for optimization


                       ----------------------
                        CPKS right-hand side 
                       ----------------------


          IRREP   tensor space dimension   number of roots

           a             15471                   1

                          ----------------
                           CPKS equations 
                          ----------------


 logfile dipl_a    will be constructed

 Switching to coarse grid

 preparing numerical integration ....
          Overall gridpoints after grid construction =        122132


                       Nonorthonormal Krylov Space Iteration


 total number of roots to be determined:   1


 maximum core memory set to  5000 MB,
 corresponding to     7544 vectors in CAO basis


 maximum number of simultaneously treated vectors (including degeneracy):        1


 Iteration IRREP Converged      Max. Euclidean
                 roots          residual norm

    1       a        0        1.085080988066797D-01
 
    2       a        0        4.850213131453818D-02
 
    3       a        0        2.236021980966696D-02
 
    4       a        0        9.466510687101160D-03
 
    5       a        0        3.568827873651576D-03
 
    6       a        0        1.247325040808990D-03
 
    7       a        0        4.813570244915666D-04
 
    8       a        0        1.656522029403057D-04
 
    9       a        0        8.241650524575515D-05
 
   10       a        0        1.895250719744639D-05
 
   11       a        1        8.039072973911689D-06
 

 converged!


 Switching to fine grid

 preparing numerical integration ....
          Overall gridpoints after grid construction =        372371

 Iteration IRREP Converged      Max. Euclidean
                 roots          residual norm

   12       a        0        1.628446913890224D-05
 

 NOTE: Residual norms are larger than 1.00D-05 due to mgrid option!

 Eigenpairs written on logfile dipl_a   



 IRREP   Vector     Frequency            Euclidean residual norm

  a         1    0.000000000000000D+00    1.628446913890224D-05
 

                          -------------------
                           relaxed densities 
                          -------------------


    ----------------------------------------
     S+T+V CONTRIBUTIONS TO ENERGY GRADIENT 
    ----------------------------------------

 1e-integral 1st. derivatives will be neglected if expon. factor < 0.100000E-10


    -----------------------------------------------
     TWO ELECTRON CONTRIBUTIONS TO ENERGY GRADIENT 
    -----------------------------------------------

 setting up bound for integral derivative estimation

 increment for numerical differentiation : 0.00050000

 biggest AO integral is expected to be    21.668154127
 biggest cartesian 1st derivative AO integral is expected to be    83.347447328

 biggest 1-particle AO density matrix element is expected to be    3.2068363415

 core memory to be involved in 2e-gradient :
   symmetry shell pair data              :         1
   two particle density+dens. estimates  :      8556
   derivative integrals                  :      8498
   derivative integral bound             :     21780
   totally                               :     30276


 setting up bound for integral derivative estimation

 increment for numerical differentiation : 0.00050000

 biggest AO integral is expected to be    21.668154127
 biggest cartesian 1st derivative AO integral is expected to be    83.347447328

 2e-integral 1st. derivatives will be neglected if expon. factor < 0.100000E-06
 outer boundary for 2e-integral derivative neglection is 0.162067E-08

 Integrated ground state density     :   161.9999976848009    


          ------------------------------------------------
           cartesian gradient of the energy (hartree/bohr)
          ------------------------------------------------

  ATOM      1 o           2 c           3 c           4 c           5 c 
dE/dx  0.3089489D-02 -0.3994547D-02  0.8957227D-03  0.2138477D-02 -0.3000201D-02
dE/dy -0.2543033D-02  0.4677844D-02  0.1445660D-02 -0.1211760D-02  0.2036656D-02
dE/dz  0.1352114D-03 -0.3553634D-03 -0.2341435D-04  0.6644875D-03 -0.8102393D-03

  ATOM      6 c           7 c           8 s           9 c          10 n 
dE/dx  0.5080657D-03 -0.1617681D-02 -0.1301760D-02  0.2728461D-02  0.1262886D-02
dE/dy -0.2278026D-02 -0.2922210D-02  0.5481829D-03 -0.4431935D-03 -0.8066008D-03
dE/dz -0.5544956D-04  0.3762871D-03 -0.2472132D-03  0.3312784D-03  0.3102693D-03

  ATOM     11 c          12 s          13 n          14 c          15 c 
dE/dx -0.6214970D-03  0.4718589D-04 -0.1289045D-02 -0.2164459D-02  0.1625099D-02
dE/dy  0.3085960D-02 -0.1010216D-02 -0.2493332D-02  0.1366540D-02 -0.7364347D-03
dE/dz -0.4443423D-03 -0.1035767D-03  0.3548214D-03 -0.8154401D-03  0.1841999D-02

  ATOM     16 h          17 h          18 o          19 br         20 h 
dE/dx -0.5263559D-03 -0.7703479D-04  0.1188692D-02 -0.2426129D-03 -0.2729593D-03
dE/dy  0.2488658D-03  0.1312689D-05 -0.3198194D-03 -0.1170196D-02  0.1700233D-02
dE/dz -0.4934940D-03 -0.7755414D-03  0.2096299D-03 -0.2356955D-04  0.3470534D-04

  ATOM     21 h 
dE/dx  0.1612536D-02
dE/dy  0.8097292D-03
dE/dz -0.1114573D-03
 
 resulting FORCE  (fx,fy,fz) = (-.115D-04,-.138D-04,-.412D-06)
 resulting MOMENT (mx,my,mz) = (-.223D-05,0.236D-05,0.779D-04)


 **********************************************************************
  |maximum component of gradient| : 0.46778436E-02  (atom  2 c )       
   gradient norm                  : 0.12223930E-01
 **********************************************************************

 exx =      -0.008841 eyy =      -0.004274 ezz =       0.000496
 eyz =       0.000359 exz =      -0.000722 exy =      -0.000848


 <getgrd> : data group $grad  is missing 

   ***  cartesian gradients written onto <gradient>  ***
 
 
 
 ==============================================================================
                           electrostatic moments
 ==============================================================================

 reference point for electrostatic moments:    0.00000   0.00000   0.00000

 
              nuc           gs,e       ->  gs,tot          excit     ->  total
 ------------------------------------------------------------------------------
                          charge      
 ------------------------------------------------------------------------------
         161.000000    -162.000000      -1.000000       0.000000      -1.000000
 
 ------------------------------------------------------------------------------
                       dipole moment  
 ------------------------------------------------------------------------------
   x    -632.860629     637.870064       5.009434      -1.242128       3.767306
   y     776.870508    -782.999049      -6.128541       1.274866      -4.853675
   z       0.669283      -0.680591      -0.011307       0.004271      -0.007036
 
   | dipole moment | =     6.1442 a.u. =    15.6169 debye 
 
 ------------------------------------------------------------------------------
                     quadrupole moment
 ------------------------------------------------------------------------------
  xx    7674.074942   -7848.318611    -174.243669       2.064826    -172.178843
  yy    5796.950206   -5933.386749    -136.436543      13.641277    -122.795267
  zz       5.725244     -98.533792     -92.808549       0.201712     -92.606837
  xy   -4802.135926    4836.666121      34.530195     -12.180083      22.350112
  xz      -6.351878       6.406314       0.054436      -0.026996       0.027439
  yz       9.578502      -9.661263      -0.082762       0.030162      -0.052599
 
     1/3  trace=    -129.193649
     anisotropy=      79.620880
 
 ==============================================================================
 


    ------------------------------------------------------------------------
         total  cpu-time :  5 minutes and 59 seconds
         total wall-time :  5 minutes and 59 seconds
    ------------------------------------------------------------------------

   ****  egrad : all done  ****


    2018-02-09 17:03:17.714 

$dipole from egrad
  x     3.76730618418003    y    -4.85367532344378    z    -0.00703649494944    a.u.
   | dipole | =   15.6170372432  debye
/work/bdnguye2/luc_project/7_brluc/ex_geo_opt/save/numforce/KraftWerk/p044
