 operating system is UNIX !

 ridft (missouri) : TURBOMOLE V7.2 ( 21454 ) 4 Oct 2017 at 12:48:15
 Copyright (C) 2017 TURBOMOLE GmbH, Karlsruhe


    2018-02-09 17:17:57.529 



                                  r i d f t

                        DFT program with RI approximation 
                                for coulomb part 




                                                 
                                 References:     
                                                 
          TURBOMOLE:                             
              R. Ahlrichs, M. Baer, M. Haeser, H. Horn, and
              C. Koelmel
              Electronic structure calculations on workstation
              computers: the program system TURBOMOLE
              Chem. Phys. Lett. 162: 165 (1989)
          Density Functional:                              
              O. Treutler and R. Ahlrichs                      
              Efficient Molecular Numerical Integration Schemes
              J. Chem. Phys. 102: 346 (1995)                   
          Parallel Version:                                
              Performance of parallel TURBOMOLE for Density    
              Functional Calculations                          
              M. v. Arnim and R. Ahlrichs                      
              J. Comp. Chem. 19: 1746 (1998)                   
          RI-J Method:                                     
              Auxiliary Basis Sets to approximate Coulomb      
              Potentials                                       
              Chem. Phys. Lett. 240: 283 (1995)                
              K. Eichkorn, O. Treutler, H. Oehm, M. Haeser     
              and R. Ahlrichs                                  
              Chem. Phys. Lett. 242: 652 (1995)                
                                                           
              Auxiliary Basis Sets for Main Row Atoms and their
              Use to approximate Coulomb Potentials            
              K. Eichkorn, F. Weigend, O. Treutler and         
              R. Ahlrichs                                      
              Theo. Chem. Acc. 97: 119 (1997)                   
                                                           
              Accurate Coulomb-fitting basis sets for H to Rn 
              F. Weigend                                        
              Phys. Chem. Chem. Phys. 8: 1057 (2006)            
                                                           
          Multipole accelerated RI-J (MARI-J):             
              Fast evaluation of the Coulomb potential for     
              electron densities using multipole accelerated   
              resolution of identity approximation             
              M. Sierka, A. Hogekamp and R. Ahlrichs           
              J. Chem. Phys. 118: 9136 (2003)                  
          RI-JK Method:                                     
              A fully direct RI-HF algorithm: Implementation,
              optimised auxiliary basis sets, demonstration of
              accuracy and efficiency                         
              F. Weigend                                      
              Phys. Chem. Chem. Phys. 4: 4285 (2002)           
          Two-component HF and DFT with spin-orbit coupling:  
              Self-consistent treatment of spin-orbit         
              interactions with efficient Hartree-Fock and    
              density functional methods                      
              M. K. Armbruster, F. Weigend, C. van Wüllen and 
              W. Klopper                                      
              Phys. Chem. Chem. Phys. 10: 1748 (2008)         
          Relativistic all-electron 2c calculations           
              An efficient implementation of two-component    
              relativistic exact-decoupling methods for large 
              molecules                                       
              D. Peng, N. Middendorf, F. Weigend, M. Reiher   
              J. Chem. Phys. 138, 184105 (2013)               
                                         




              +--------------------------------------------------+
              |      general information about current run       |
              +--------------------------------------------------+

 
 PBE0 hybrid functional
 exchange:    3/4 (LDA+PBE) + 1/4 HF
 correlation: LDA (PW) + PBE
 A Hybrid-DFT calculation using the RI-J approximation will be carried out.
 Allocatable memory for RI due to $ricore (MB):                  5000


              +--------------------------------------------------+
              | Atomic coordinate, charge and isotop information |
              +--------------------------------------------------+

                    atomic coordinates            atom    charge  isotop
        -12.81280793    6.80081374    0.00725880    o      8.000     0
        -10.87181148    5.50686418   -0.00037261    c      6.000     0
         -8.32879706    6.66034989    0.01144564    c      6.000     0
         -6.09793060    5.19343047    0.00385667    c      6.000     0
         -6.19227994    2.53041083   -0.00184438    c      6.000     0
         -8.59558088    1.37220844   -0.00876520    c      6.000     0
        -10.80001374    2.77368041   -0.00565721    c      6.000     0
         -3.01252993    6.22038848    0.01339031    s     16.000     0
         -2.04111034    3.03680736   -0.00201824    c      6.000     0
         -3.85405760    1.35624813   -0.00496239    n      7.000     0
          0.62550344    2.55358207   -0.00426889    c      6.000     0
          1.62337636   -0.65694464   -0.01112997    s     16.000     0
          2.36756735    4.30950155    0.00259781    n      7.000     0
          4.77741499    3.37116317    0.00193971    c      6.000     0
          4.84905953    0.44075416   -0.00829833    c      6.000     0
          5.87853751   -0.23512531    1.67334419    h      1.000     0
          5.88228825   -0.21884605   -1.69544301    h      1.000     0
          6.73292996    4.59247462    0.01151560    o      8.000     0
         -8.16930988   10.16834184    0.01724431    br    35.000     0
         -8.66772537   -0.70248666   -0.01816228    h      1.000     0
        -12.65063503    1.83738933   -0.00918144    h      1.000     0
 
       center of nuclear mass  :   -4.07582194    5.04247458    0.00457026
       center of nuclear charge:   -3.93048180    4.82627365    0.00397528

              +--------------------------------------------------+
              |               basis set information              |
              +--------------------------------------------------+

              we will work with the 1s 3p 5d 7f 9g ... basis set
              ...i.e. with spherical basis functions...

   type   atoms  prim   cont   basis
   ---------------------------------------------------------------------------
    o        2     24     14   def2-SV(P)   [3s2p1d|7s4p1d]
    c       10     24     14   def2-SV(P)   [3s2p1d|7s4p1d]
    s        2     36     18   def2-SV(P)   [4s3p1d|10s7p1d]
    n        2     24     14   def2-SV(P)   [3s2p1d|7s4p1d]
    h        4      4      2   def2-SV(P)   [2s|4s]
    br       1     74     32   def2-SV(P)   [5s4p3d|14s10p6d]
   ---------------------------------------------------------------------------
   total:   21    498    272
   ---------------------------------------------------------------------------

   total number of primitive shells          :   88
   total number of contracted shells         :  120
   total number of cartesian basis functions :  291
   total number of SCF-basis functions       :  272


 integral neglect threshold       :  0.11E-10
 integral storage threshold THIZE :  0.10E-04
 integral storage threshold THIME :         5

 RI-J AUXILIARY BASIS SET information:

              we will work with the 1s 3p 5d 7f 9g ... basis set
              ...i.e. with spherical basis functions...

   type   atoms  prim   cont   basis
   ---------------------------------------------------------------------------
    o        2     70     49   def2-SV(P)   [6s4p3d1f1g|12s5p4d2f1g]
    c       10     70     49   def2-SV(P)   [6s4p3d1f1g|12s5p4d2f1g]
    s        2     77     51   def2-SV(P)   [8s4p3d1f1g|14s5p5d2f1g]
    n        2     70     49   def2-SV(P)   [6s4p3d1f1g|12s5p4d2f1g]
    h        4     16     11   def2-SV(P)   [3s1p1d|5s2p1d]
    br       1     89     58   def2-SV(P)   [8s4p3d2f1g|19s5p5d3f1g]
   ---------------------------------------------------------------------------
   total:   21   1287    890
   ---------------------------------------------------------------------------

   total number of primitive shells          :  140
   total number of contracted shells         :  282
   total number of cartesian basis functions : 1101
   total number of SCF-basis functions       :  890


 symmetry group of the molecule :   c1 

 the group has the following generators :
   c1(z)

    1 symmetry operations found

 there are 1 real representations :   a   

 maximum number of shells which are related by symmetry :  1


    mo occupation :
   irrep   mo's   occupied
    a      272       81
 
 number of basis functions   :                    272
 number of occupied orbitals :                     81
 
  
           ------------------
           density functional
           ------------------
 PBE0 hybrid functional
 exchange:    3/4 (LDA+PBE) + 1/4 HF
 correlation: LDA (PW) + PBE

 iterations will be done with small grid
  
 spherical integration : Lebedev's spherical grid
 spherical gridsize    :                     5
    i.e. gridpoints    :                   590
 value for diffuse not defined
 radial integration    : Chebyshev 2nd kind (scaling 3)
 radial gridsize       :                     8
 integration cells     :                    21
 partition function    : becke
 partition sharpness   :                     3
  

 biggest AO integral is expected to be    21.668154127
  
           ------------------------
               RI-J - INFORMATION
           ------------------------
 Contributions to RI integral batches: 
  neglected integral batches:                  2258
  direct contribution:                            0
  memory contribution:                  5002
 Memory core needed for (P|Q) and Cholesky      7 MByte
 Memory core minimum needed except of (P|Q)     1 MByte
 Total minimum memory core needed (sum)         7 MByte
  
 ****************************************
 Memory allocated for RI-J   249 MByte
 ****************************************
                                            

          ------------------------
          nuclear repulsion energy  :   1710.58260119    
          ------------------------


         -----------------
         -S,T+V- integrals
         -----------------

 1e-integrals will be neglected if expon. factor < 0.114844E-11
 
   Difference densities algorithm switched on.
   The maximal number of linear combinations of
   difference densities is                    20 .

 DIIS switched on: error vector is FDS-SDF
 Max. Iterations for DIIS is     :   4
 DIIS matrix (see manual) 
    Scaling factor of diagonals  :  1.200
    threshold for scaling factor :  0.000

 scf convergence criterion : increment of total energy < .1000000D-06
                  and increment of one-electron energy < .1000000D-03

  MOs are in ASCII format !


 automatic virtual orbital shift switched on 
      shift if e(lumo)-e(homo) < 0.10000000    


 reading orbital data $scfmo  from file mos
 orbital characterization : scfconv=7

 dump of DSCF restart information has been disabled !


 Starting SCF iterations

          Overall gridpoints after grid construction =        122134

 ITERATION  ENERGY          1e-ENERGY        2e-ENERGY     NORM[dD(SAO)]  TOL
   1  -4011.7257864320    -8982.0241494     3259.7157618    0.000D+00 0.115D-10
                            Exc = -172.723323398     Coul =  3488.09710040    
                            exK = -55.6580152481    
                              N = 162.00000434    
                            current damping = 0.700
 
          max. resid. norm for Fia-block=  4.292D-03 for orbital      1a         
          max. resid. fock norm         =  8.747D-03 for orbital      1a         

 ITERATION  ENERGY          1e-ENERGY        2e-ENERGY     NORM[dD(SAO)]  TOL
   2  -4011.7258352653    -8982.0150899     3259.7066535    0.302D-01 0.726D-11
                            Exc = -172.723585409      Eck =  3432.43023887    
                              N = 162.00000434    
                            current damping = 0.650
 
          Norm of current diis error: 0.77607E-02
          max. resid. norm for Fia-block=  1.768D-03 for orbital      1a         
          max. resid. fock norm         =  3.602D-03 for orbital      1a         

 ITERATION  ENERGY          1e-ENERGY        2e-ENERGY     NORM[dD(SAO)]  TOL
   3  -4011.7258434444    -8982.0184971     3259.7100524    0.815D-02 0.564D-11
                            Exc = -172.722953391      Eck =  3432.43300582    
                              N = 162.00000431    
                            current damping = 0.600
 
          Norm of current diis error: 0.54242E-02
          max. resid. norm for Fia-block=  6.968D-04 for orbital      1a         
          max. resid. fock norm         =  1.419D-03 for orbital      1a         

 ITERATION  ENERGY          1e-ENERGY        2e-ENERGY     NORM[dD(SAO)]  TOL
   4  -4011.7258481266    -8982.0139464     3259.7054971    0.222D-02 0.522D-11
                            Exc = -172.723354253      Eck =  3432.42885132    
                              N = 162.00000431    
                            current damping = 0.650
 
          Norm of current diis error: 0.16253E-02
          max. resid. norm for Fia-block=  2.613D-04 for orbital      1a         
          max. resid. fock norm         =  5.321D-04 for orbital      1a         

 ITERATION  ENERGY          1e-ENERGY        2e-ENERGY     NORM[dD(SAO)]  TOL
   5  -4011.7258486204    -8982.0150999     3259.7066501    0.921D-03 0.496D-11
                            Exc = -172.723294378      Eck =  3432.42994447    
                              N = 162.00000431    
                            current damping = 0.700
 
          Norm of current diis error: 0.65398E-03
          max. resid. norm for Fia-block=  1.030D-04 for orbital      1a         
          max. resid. fock norm         =  2.096D-04 for orbital      1a         
          mo-orthogonalization: Cholesky decomposition

 ITERATION  ENERGY          1e-ENERGY        2e-ENERGY     NORM[dD(SAO)]  TOL
   6  -4011.7258489412    -8982.0144213     3259.7059712    0.344D-03 0.479D-11
                            Exc = -172.723285652      Eck =  3432.42925683    
                              N = 162.00000433    
                            current damping = 0.750
 
          Norm of current diis error: 0.26572E-03
          max. resid. norm for Fia-block=  4.239D-05 for orbital      1a         
          max. resid. fock norm         =  8.631D-05 for orbital      1a         

 ENERGY CONVERGED !

          Overall gridpoints after grid construction =        372366

 ITERATION  ENERGY          1e-ENERGY        2e-ENERGY     NORM[dD(SAO)]  TOL
   7  -4011.7258453611    -8982.0143414     3259.7058949    0.166D-03 0.469D-11
                            Exc = -172.723293053      Eck =  3432.42918794    
                              N = 161.99999771    
                            current damping = 0.600
 
          Norm of current diis error: 0.17225E-03
          max. resid. norm for Fia-block=  1.817D-05 for orbital      1a         
          max. resid. fock norm         =  3.699D-05 for orbital      1a         

 End of SCF iterations

   convergence criteria satisfied after     7 iterations


                  ------------------------------------------ 
                 |  total energy      =  -4011.72584536111  |
                  ------------------------------------------ 
                 :  kinetic energy    =   4002.28548352929  :
                 :  potential energy  =  -8014.01132889041  :
                 :  virial theorem    =      1.99764680783  :
                 :  wavefunction norm =      1.00000000000  :
                  .......................................... 


 <geterg> : there is no data group $energy 


 orbitals $scfmo  will be written to file mos

    irrep                 77a         78a         79a         80a         81a   
 eigenvalues H         -0.16899    -0.16282    -0.12904    -0.12051    -0.07412
            eV          -4.5985     -4.4307     -3.5114     -3.2794     -2.0170
 occupation              2.0000      2.0000      2.0000      2.0000      2.0000 

    irrep                 82a         83a         84a         85a         86a   
 eigenvalues H          0.01718     0.10872     0.11868     0.12829     0.13552
            eV           0.4676      2.9584      3.2295      3.4910      3.6877
 
 
 
 
 ==============================================================================
                           electrostatic moments
 ==============================================================================

 reference point for electrostatic moments:    0.00000   0.00000   0.00000

 
              nuc           elec       ->  total
 ------------------------------------------------------------------------------
                          charge      
 ------------------------------------------------------------------------------
         161.000000    -162.000000      -1.000000
 
 ------------------------------------------------------------------------------
                       dipole moment  
 ------------------------------------------------------------------------------
   x    -632.807570     637.828635       5.021065
   y     777.030058    -783.168424      -6.138366
   z       0.640020      -0.651470      -0.011450
 
   | dipole moment | =     7.9304 a.u. =    20.1570 debye 
 
 ------------------------------------------------------------------------------
                     quadrupole moment
 ------------------------------------------------------------------------------
  xx    7673.809469   -7848.142627    -174.333157
  yy    5800.046922   -5936.577988    -136.531067
  zz       5.694102     -98.517922     -92.823821
  xy   -4803.745636    4838.274093      34.528457
  xz      -5.653384       5.687166       0.033782
  yz       8.695583      -8.778207      -0.082624
 
     1/3  trace=    -134.562681
     anisotropy=      92.564645
 
 ==============================================================================
 


    ------------------------------------------------------------------------
         total  cpu-time :  58.73 seconds
         total wall-time :  58.74 seconds
    ------------------------------------------------------------------------

   ****  ridft : all done  ****


    2018-02-09 17:18:56.253 


 egrad (missouri) : TURBOMOLE V7.2 ( 21454 ) 4 Oct 2017 at 12:24:43
 Copyright (C) 2017 TURBOMOLE GmbH, Karlsruhe


    2018-02-09 17:18:56.272 




                               e g r a d

                             TURBOMOLE GmbH


             integral direct evaluation of excited state
                     and polarizability gradients
                 and first-order nonadiabatic couplings



          references (see also programs escf, dscf and ridft) 

          review 
          F. Furche and D. Rappoport,  
          "Density functional methods for excited states: 
          equilibrium structure and electronic spectra",
          ch. III of "Computational Photochemistry", ed. by 
          M. Olivucci, vol. 16 of "Theoretical and Computational 
          Chemistry", Elsevier, Amsterdam, 2005.

          nonorthonormal Krylov space methods 
          F. Furche, B. T. Krull, B. D. Nguyen, J. Kwon, 
          J. Chem. Phys. 144 (2016), 174105.

          RI-J method 
          D. Rappoport and F. Furche, 
          J. Chem. Phys. 122 (2005), 064105.

          Lagrangian method, implementation, benchmarks 
          F. Furche and R. Ahlrichs,
          J. Chem. Phys. 117 (2002), 7433;
          J. Chem. Phys. 121 (2004), 12772 (E).

          Polarizability derivatives, Raman intensities 
          D. Rappoport and F. Furche, 
          J. Chem. Phys. 126 (2007), 201104.

          First-order nonadiabatic couplings 
          R. Send and F. Furche, 
          J. Chem. Phys. 132 (2010), 044107.
                                     




              +--------------------------------------------------+
              | Atomic coordinate, charge and isotop information |
              +--------------------------------------------------+

                    atomic coordinates            atom    charge  isotop
        -12.81280793    6.80081374    0.00725880    o      8.000     0
        -10.87181148    5.50686418   -0.00037261    c      6.000     0
         -8.32879706    6.66034989    0.01144564    c      6.000     0
         -6.09793060    5.19343047    0.00385667    c      6.000     0
         -6.19227994    2.53041083   -0.00184438    c      6.000     0
         -8.59558088    1.37220844   -0.00876520    c      6.000     0
        -10.80001374    2.77368041   -0.00565721    c      6.000     0
         -3.01252993    6.22038848    0.01339031    s     16.000     0
         -2.04111034    3.03680736   -0.00201824    c      6.000     0
         -3.85405760    1.35624813   -0.00496239    n      7.000     0
          0.62550344    2.55358207   -0.00426889    c      6.000     0
          1.62337636   -0.65694464   -0.01112997    s     16.000     0
          2.36756735    4.30950155    0.00259781    n      7.000     0
          4.77741499    3.37116317    0.00193971    c      6.000     0
          4.84905953    0.44075416   -0.00829833    c      6.000     0
          5.87853751   -0.23512531    1.67334419    h      1.000     0
          5.88228825   -0.21884605   -1.69544301    h      1.000     0
          6.73292996    4.59247462    0.01151560    o      8.000     0
         -8.16930988   10.16834184    0.01724431    br    35.000     0
         -8.66772537   -0.70248666   -0.01816228    h      1.000     0
        -12.65063503    1.83738933   -0.00918144    h      1.000     0
 
       center of nuclear mass  :   -4.07582194    5.04247458    0.00457026
       center of nuclear charge:   -3.93048180    4.82627365    0.00397528

              +--------------------------------------------------+
              |               basis set information              |
              +--------------------------------------------------+

              we will work with the 1s 3p 5d 7f 9g ... basis set
              ...i.e. with spherical basis functions...

   type   atoms  prim   cont   basis
   ---------------------------------------------------------------------------
    o        2     24     14   def2-SV(P)   [3s2p1d|7s4p1d]
    c       10     24     14   def2-SV(P)   [3s2p1d|7s4p1d]
    s        2     36     18   def2-SV(P)   [4s3p1d|10s7p1d]
    n        2     24     14   def2-SV(P)   [3s2p1d|7s4p1d]
    h        4      4      2   def2-SV(P)   [2s|4s]
    br       1     74     32   def2-SV(P)   [5s4p3d|14s10p6d]
   ---------------------------------------------------------------------------
   total:   21    498    272
   ---------------------------------------------------------------------------

   total number of primitive shells          :   88
   total number of contracted shells         :  120
   total number of cartesian basis functions :  291
   total number of SCF-basis functions       :  272


 residuum convergence criterium   :  0.10E-04


 integral neglect threshold       :  0.11E-10
 integral storage threshold THIZE :  0.10E-04
 integral storage threshold THIME :         5

 
             FOUND RI-J FLAG !
 
  
 AUXILIARY BASIS SET information:

              we will work with the 1s 3p 5d 7f 9g ... basis set
              ...i.e. with spherical basis functions...

   type   atoms  prim   cont   basis
   ---------------------------------------------------------------------------
    o        2     70     49   def2-SV(P)   [6s4p3d1f1g|12s5p4d2f1g]
    c       10     70     49   def2-SV(P)   [6s4p3d1f1g|12s5p4d2f1g]
    s        2     77     51   def2-SV(P)   [8s4p3d1f1g|14s5p5d2f1g]
    n        2     70     49   def2-SV(P)   [6s4p3d1f1g|12s5p4d2f1g]
    h        4     16     11   def2-SV(P)   [3s1p1d|5s2p1d]
    br       1     89     58   def2-SV(P)   [8s4p3d2f1g|19s5p5d3f1g]
   ---------------------------------------------------------------------------
   total:   21   1287    890
   ---------------------------------------------------------------------------

   total number of primitive shells          :  140
   total number of contracted shells         :  282
   total number of cartesian basis functions : 1101
   total number of SCF-basis functions       :  890

 RPA SINGLET-EXCITATION-CALCULATION 
 
             FOUND DFT-FLAG !
 

 symmetry group of the molecule :   c1 

 the group has the following generators :
   c1(z)

    1 symmetry operations found

 there are 1 real representations :   a   

 maximum number of shells which are related by symmetry :  1

 IRREP of excited state :   a   
 

 determining totally symmetric integral contributions 
    - equivalent to irreducible tensor elements - 
 which can be formed within each triple of representations :

             representation triple      contributions

              a     a     a               1

    mo occupation :
   irrep   mo's   occupied
    a      272       81
 
 number of basis functions   :                    272
 number of occupied orbitals :                     81
 
  
           ------------------
           density functional
           ------------------
 PBE0 hybrid functional
 exchange:    3/4 (LDA+PBE) + 1/4 HF
 correlation: LDA (PW) + PBE

 iterations will be done with small grid
  
 spherical integration : Lebedev's spherical grid
 spherical gridsize    :                     5
    i.e. gridpoints    :                   590
 value for diffuse not defined
 radial integration    : Chebyshev 2nd kind (scaling 3)
 radial gridsize       :                     8
 integration cells     :                    21
 partition function    : becke
 partition sharpness   :                     3
  
  
           ----------------------
               RI - INFORMATION
           ----------------------

 biggest AO integral is expected to be    21.668154127

 Threshold for integral neglect (rithr2):   0.11E-10
 Threshold for integral neglect (rithr1):   0.11E-10

 Contributions to RI integral batches: 
  neglected integral batches:                  2114
  direct contribution:                            0
  memory contribution:                  5146
 Core memory available (ricore)            5000 MiB
 Core memory needed for (P|Q) and Cholesky 7 MiB
 Core memory used for integrals            250 MiB
  
 ****************************************
 Memory allocated for RIDFT 257 MiB
 ****************************************
                                            
  MOs are in ASCII format !


 reading orbital data $scfmo  from file mos
 orbital characterization : scfconv=7
 preparing numerical integration ....
          Overall gridpoints after grid construction =        122134

 Calculating ground state density on molecular grid

 Integral of ground state density: N =   162.0000043250739    



 number of non-frozen orbitals          :   272
 number of non-frozen occupied orbitals :    81



                        -------------------
                         excitation vector 
                        -------------------


 dimension of super-tensorspace: 2

          IRREP   tensor space dimension   number of roots

           a             15471                   1

 maximum number of Davidson iterations set to   25


 machine precision: 2.22D-16


 logfile sing_a    will be constructed


                       Nonorthonormal Krylov Space Iteration


 total number of roots to be determined:   1


 maximum core memory set to  5000 MB,
 corresponding to     3796 vectors in CAO basis


 maximum number of simultaneously treated vectors (including degeneracy):        2


 Iteration IRREP Converged      Max. Euclidean
                 roots          residual norm

    1       a        0        3.174628850042664D-02
 
    2       a        0        9.799901144758433D-02
 
    3       a        0        3.752970907281571D-02
 
    4       a        0        1.596283635406023D-02
 
    5       a        0        5.957463673862376D-03
 
    6       a        0        2.802896554483025D-03
 
    7       a        0        1.320303249940166D-03
 
    8       a        0        5.629378734666874D-04
 
    9       a        0        2.495637539861622D-04
 
   10       a        0        9.900142236618635D-05
 
   11       a        0        5.308670436493935D-05
 
   12       a        0        1.524883909054207D-05
 
   13       a        1        6.129151932488875D-06
 

 converged!


 Switching to fine grid

 preparing numerical integration ....
          Overall gridpoints after grid construction =        372366

 Calculating ground state density on molecular grid

 Integral of ground state density: N =   161.9999977136177    



 Iteration IRREP Converged      Max. Euclidean
                 roots          residual norm

   14       a        1        9.147876615933960D-06
 

 converged!

 Eigenpairs written on logfile sing_a   



 IRREP   Vector     Eigenvalue           Euclidean residual norm

  a         1    8.368509176287592D-02    9.147876615933960D-06
 




                    Selection rules for point group c1  


 Subduction with respect to c1  :

    Polar vector representation: a                           

    Axial vector representation: a                           

    Symmetric second rank tensor representation: a                           




                            Ground state


 Total energy:                           -4011.725845361000    

 Charge:

               elec          nuc         total

          -162.000000   161.000000    -1.000000


 Electric dipole moment:

               elec          nuc         total   

    x      637.828635  -632.807570     5.021065    Norm:              7.930370
    y     -783.168424   777.030058    -6.138366
    z       -0.651470     0.640020    -0.011450    Norm / debye:     20.157142


 Electric quadrupole moment:

               elec          nuc         total   

   xx    -7848.142627  7673.809469  -174.333157
   yy    -5936.577988  5800.046922  -136.531067    1/3*trace:      -134.562681
   zz      -98.517922     5.694102   -92.823821
   xy     4838.274093 -4803.745636    34.528457
   xz        5.687166    -5.653384     0.033782    Anisotropy:       92.564645
   yz       -8.778207     8.695583    -0.082624



 ==============================================================================

                              I R R E P   a   

 ==============================================================================


 Excitation is electric dipole allowed

 Excitation is magnetic dipole allowed

 Excitation is electric quadrupole allowed




                         1 singlet a excitation


 Total energy:                           -4011.642160269237    

 Excitation energy:                      0.8368509176287592E-01

 Excitation energy / eV:                  2.277188185482420    

 Excitation energy / nm:                  544.4620027316819    

 Excitation energy / cm^(-1):             18366.75460975281    


 Oscillator strength:

    velocity representation:             0.3138410310594701    

    length representation:               0.3657375838919996    

    mixed representation:                0.3387911607713480    


 Rotatory strength:

    velocity representation:            -0.4655180528606313E-05

    velocity rep. / 10^(-40)erg*cm^3:   -0.3007470833885607    

    length representation:              -0.4775787986918951E-05

    length rep. / 10^(-40)erg*cm^3:     -0.3085389060900731    


 Dominant contributions:

      occ. orbital   energy / eV   virt. orbital     energy / eV   |coeff.|^2*100
       81 a              -2.02          82 a               0.47       91.7
 

 Change of electron number:

             0.000000


 Electric transition dipole moment (velocity rep.):

    x       -2.331192        Norm:                  2.371791
    y        0.436965
    z        0.000418        Norm / debye:          6.028537


 Electric transition dipole moment (length rep.):

    x       -2.513732        Norm:                  2.560392
    y        0.486576
    z        0.000630        Norm / debye:          6.507915


 Magnetic transition dipole moment / i:

    x        0.000003        Norm:                  0.001091
    y        0.000003
    z        0.001091        Norm / Bohr mag.:      0.299007


 Electric quadrupole transition moment:

   xx       18.800238
   yy        4.481073        1/3*trace:             7.724124
   zz       -0.108940
   xy      -11.323314
   xz       -0.002520        Anisotropy:           26.009311
   yz        0.003647
 

 Excited state no.    1 chosen for optimization


                       ----------------------
                        CPKS right-hand side 
                       ----------------------


          IRREP   tensor space dimension   number of roots

           a             15471                   1

                          ----------------
                           CPKS equations 
                          ----------------


 logfile dipl_a    will be constructed

 Switching to coarse grid

 preparing numerical integration ....
          Overall gridpoints after grid construction =        122134


                       Nonorthonormal Krylov Space Iteration


 total number of roots to be determined:   1


 maximum core memory set to  5000 MB,
 corresponding to     7544 vectors in CAO basis


 maximum number of simultaneously treated vectors (including degeneracy):        1


 Iteration IRREP Converged      Max. Euclidean
                 roots          residual norm

    1       a        0        1.081190582220755D-01
 
    2       a        0        4.847229245445070D-02
 
    3       a        0        2.225168027017406D-02
 
    4       a        0        9.383165581057553D-03
 
    5       a        0        3.535239547317485D-03
 
    6       a        0        1.236186009085723D-03
 
    7       a        0        4.778846093282253D-04
 
    8       a        0        1.643422867710220D-04
 
    9       a        0        8.188143957727329D-05
 
   10       a        0        1.883695567631085D-05
 
   11       a        1        7.942764980427612D-06
 

 converged!


 Switching to fine grid

 preparing numerical integration ....
          Overall gridpoints after grid construction =        372366

 Iteration IRREP Converged      Max. Euclidean
                 roots          residual norm

   12       a        0        1.619703184277076D-05
 

 NOTE: Residual norms are larger than 1.00D-05 due to mgrid option!

 Eigenpairs written on logfile dipl_a   



 IRREP   Vector     Frequency            Euclidean residual norm

  a         1    0.000000000000000D+00    1.619703184277076D-05
 

                          -------------------
                           relaxed densities 
                          -------------------


    ----------------------------------------
     S+T+V CONTRIBUTIONS TO ENERGY GRADIENT 
    ----------------------------------------

 1e-integral 1st. derivatives will be neglected if expon. factor < 0.100000E-10


    -----------------------------------------------
     TWO ELECTRON CONTRIBUTIONS TO ENERGY GRADIENT 
    -----------------------------------------------

 setting up bound for integral derivative estimation

 increment for numerical differentiation : 0.00050000

 biggest AO integral is expected to be    21.668154127
 biggest cartesian 1st derivative AO integral is expected to be    83.347447328

 biggest 1-particle AO density matrix element is expected to be    3.2070352307

 core memory to be involved in 2e-gradient :
   symmetry shell pair data              :         1
   two particle density+dens. estimates  :      8556
   derivative integrals                  :      8498
   derivative integral bound             :     21780
   totally                               :     30276


 setting up bound for integral derivative estimation

 increment for numerical differentiation : 0.00050000

 biggest AO integral is expected to be    21.668154127
 biggest cartesian 1st derivative AO integral is expected to be    83.347447328

 2e-integral 1st. derivatives will be neglected if expon. factor < 0.100000E-06
 outer boundary for 2e-integral derivative neglection is 0.162047E-08

 Integrated ground state density     :   161.9999977136169    


          ------------------------------------------------
           cartesian gradient of the energy (hartree/bohr)
          ------------------------------------------------

  ATOM      1 o           2 c           3 c           4 c           5 c 
dE/dx  0.3109826D-02 -0.4281087D-02  0.2404697D-02 -0.2648209D-02  0.7881729D-03
dE/dy -0.2510123D-02  0.2599555D-02 -0.2301762D-02  0.2331387D-02 -0.4193175D-03
dE/dz  0.3342207D-03 -0.9933324D-03  0.6586687D-03 -0.5513961D-03  0.2953518D-03

  ATOM      6 c           7 c           8 s           9 c          10 n 
dE/dx -0.7195856D-03  0.2842741D-02  0.8498172D-03 -0.6312698D-04  0.1027999D-02
dE/dy  0.2539143D-02  0.1418148D-02 -0.4869082D-03  0.1083862D-02 -0.1245027D-02
dE/dz -0.4176421D-05  0.2915785D-03  0.2716757D-03 -0.2534955D-03  0.1594822D-03

  ATOM     11 c          12 s          13 n          14 c          15 c 
dE/dx -0.5786561D-03  0.1169834D-02 -0.2424252D-02 -0.1478868D-02 -0.4418758D-04
dE/dy  0.1582325D-02 -0.9227021D-03 -0.9441326D-04 -0.2173622D-02 -0.9002509D-03
dE/dz -0.9295362D-04  0.1610734D-03  0.9072301D-04 -0.3603912D-03  0.2690996D-03

  ATOM     16 h          17 h          18 o          19 br         20 h 
dE/dx -0.4686771D-03 -0.1347523D-03  0.2961604D-02 -0.1930862D-03  0.2853134D-05
dE/dy  0.2206874D-03  0.3475512D-03  0.1674091D-02  0.4814381D-03 -0.2282631D-02
dE/dz -0.5374968D-03  0.2971695D-03  0.1440759D-03 -0.9967361D-04 -0.1050861D-03

  ATOM     21 h 
dE/dx -0.2133562D-02
dE/dy -0.9565436D-03
dE/dz  0.2484089D-04
 
 resulting FORCE  (fx,fy,fz) = (-.105D-04,-.151D-04,-.419D-07)
 resulting MOMENT (mx,my,mz) = (-.245D-05,0.554D-05,0.730D-04)


 **********************************************************************
  |maximum component of gradient| : 0.42810875E-02  (atom  2 c )       
   gradient norm                  : 0.11472500E-01
 **********************************************************************

 exx =       0.000482 eyy =       0.007770 ezz =      -0.001396
 eyz =      -0.000205 exz =      -0.000491 exy =       0.005411


 <getgrd> : data group $grad  is missing 

   ***  cartesian gradients written onto <gradient>  ***
 
 
 
 ==============================================================================
                           electrostatic moments
 ==============================================================================

 reference point for electrostatic moments:    0.00000   0.00000   0.00000

 
              nuc           gs,e       ->  gs,tot          excit     ->  total
 ------------------------------------------------------------------------------
                          charge      
 ------------------------------------------------------------------------------
         161.000000    -162.000000      -1.000000       0.000000      -1.000000
 
 ------------------------------------------------------------------------------
                       dipole moment  
 ------------------------------------------------------------------------------
   x    -632.807570     637.828635       5.021065      -1.242454       3.778611
   y     777.030058    -783.168424      -6.138366       1.263918      -4.874448
   z       0.640020      -0.651470      -0.011450       0.004237      -0.007213
 
   | dipole moment | =     6.1675 a.u. =    15.6763 debye 
 
 ------------------------------------------------------------------------------
                     quadrupole moment
 ------------------------------------------------------------------------------
  xx    7673.809469   -7848.142627    -174.333157       2.085589    -172.247568
  yy    5800.046922   -5936.577988    -136.531067      13.515758    -123.015309
  zz       5.694102     -98.517922     -92.823821       0.197943     -92.625878
  xy   -4803.745636    4838.274093      34.528457     -12.104656      22.423800
  xz      -5.653384       5.687166       0.033782      -0.026948       0.006834
  yz       8.695583      -8.778207      -0.082624       0.027185      -0.055439
 
     1/3  trace=    -129.296252
     anisotropy=      79.699204
 
 ==============================================================================
 


    ------------------------------------------------------------------------
         total  cpu-time :  6 minutes and  5 seconds
         total wall-time :  6 minutes and  5 seconds
    ------------------------------------------------------------------------

   ****  egrad : all done  ****


    2018-02-09 17:25:01.189 

$dipole from egrad
  x     3.77861129759242    y    -4.87444849576218    z    -0.00721278256580    a.u.
   | dipole | =   15.6763701740  debye
/work/bdnguye2/luc_project/7_brluc/ex_geo_opt/save/numforce/KraftWerk/p047
