 operating system is UNIX !

 ridft (missouri) : TURBOMOLE V7.2 ( 21454 ) 4 Oct 2017 at 12:48:15
 Copyright (C) 2017 TURBOMOLE GmbH, Karlsruhe


    2018-02-09 17:25:01.223 



                                  r i d f t

                        DFT program with RI approximation 
                                for coulomb part 




                                                 
                                 References:     
                                                 
          TURBOMOLE:                             
              R. Ahlrichs, M. Baer, M. Haeser, H. Horn, and
              C. Koelmel
              Electronic structure calculations on workstation
              computers: the program system TURBOMOLE
              Chem. Phys. Lett. 162: 165 (1989)
          Density Functional:                              
              O. Treutler and R. Ahlrichs                      
              Efficient Molecular Numerical Integration Schemes
              J. Chem. Phys. 102: 346 (1995)                   
          Parallel Version:                                
              Performance of parallel TURBOMOLE for Density    
              Functional Calculations                          
              M. v. Arnim and R. Ahlrichs                      
              J. Comp. Chem. 19: 1746 (1998)                   
          RI-J Method:                                     
              Auxiliary Basis Sets to approximate Coulomb      
              Potentials                                       
              Chem. Phys. Lett. 240: 283 (1995)                
              K. Eichkorn, O. Treutler, H. Oehm, M. Haeser     
              and R. Ahlrichs                                  
              Chem. Phys. Lett. 242: 652 (1995)                
                                                           
              Auxiliary Basis Sets for Main Row Atoms and their
              Use to approximate Coulomb Potentials            
              K. Eichkorn, F. Weigend, O. Treutler and         
              R. Ahlrichs                                      
              Theo. Chem. Acc. 97: 119 (1997)                   
                                                           
              Accurate Coulomb-fitting basis sets for H to Rn 
              F. Weigend                                        
              Phys. Chem. Chem. Phys. 8: 1057 (2006)            
                                                           
          Multipole accelerated RI-J (MARI-J):             
              Fast evaluation of the Coulomb potential for     
              electron densities using multipole accelerated   
              resolution of identity approximation             
              M. Sierka, A. Hogekamp and R. Ahlrichs           
              J. Chem. Phys. 118: 9136 (2003)                  
          RI-JK Method:                                     
              A fully direct RI-HF algorithm: Implementation,
              optimised auxiliary basis sets, demonstration of
              accuracy and efficiency                         
              F. Weigend                                      
              Phys. Chem. Chem. Phys. 4: 4285 (2002)           
          Two-component HF and DFT with spin-orbit coupling:  
              Self-consistent treatment of spin-orbit         
              interactions with efficient Hartree-Fock and    
              density functional methods                      
              M. K. Armbruster, F. Weigend, C. van Wüllen and 
              W. Klopper                                      
              Phys. Chem. Chem. Phys. 10: 1748 (2008)         
          Relativistic all-electron 2c calculations           
              An efficient implementation of two-component    
              relativistic exact-decoupling methods for large 
              molecules                                       
              D. Peng, N. Middendorf, F. Weigend, M. Reiher   
              J. Chem. Phys. 138, 184105 (2013)               
                                         




              +--------------------------------------------------+
              |      general information about current run       |
              +--------------------------------------------------+

 
 PBE0 hybrid functional
 exchange:    3/4 (LDA+PBE) + 1/4 HF
 correlation: LDA (PW) + PBE
 A Hybrid-DFT calculation using the RI-J approximation will be carried out.
 Allocatable memory for RI due to $ricore (MB):                  5000


              +--------------------------------------------------+
              | Atomic coordinate, charge and isotop information |
              +--------------------------------------------------+

                    atomic coordinates            atom    charge  isotop
        -12.81303530    6.80079181    0.00660274    o      8.000     0
        -10.87200620    5.50585570   -0.00089873    c      6.000     0
         -8.33003697    6.65936110    0.01013115    c      6.000     0
         -6.09947467    5.19222261    0.00171201    c      6.000     0
         -6.19318899    2.52767292   -0.00226593    c      6.000     0
         -8.59885031    1.37244515   -0.01245218    c      6.000     0
        -10.79897947    2.76973631   -0.00372920    c      6.000     0
         -3.01653347    6.22325430    0.00955036    s     16.000     0
         -2.03732038    3.03336541    0.00262245    c      6.000     0
         -3.85687081    1.36160833   -0.00693500    n      7.000     0
          0.63139990    2.55262878    0.00193778    c      6.000     0
          1.62357540   -0.65068446   -0.00970112    s     16.000     0
          2.37360806    4.31217559    0.00814536    n      7.000     0
          4.78128472    3.37595912    0.00689193    c      6.000     0
          4.85287584    0.44661703   -0.00564577    c      6.000     0
          5.88508938   -0.23376573    1.68032536    h      1.000     0
          5.88273645   -0.21875876   -1.69459824    h      1.000     0
          6.73327197    4.59361641    0.01225882    o      8.000     0
         -8.16801126   10.16959949    0.01852915    br    35.000     0
         -8.66588346   -0.70140406   -0.01571667    h      1.000     0
        -12.64994693    1.84040408   -0.01422097    h      1.000     0
 
       center of nuclear mass  :   -4.07529314    5.04396295    0.00527007
       center of nuclear charge:   -3.92995312    4.82776716    0.00466512

              +--------------------------------------------------+
              |               basis set information              |
              +--------------------------------------------------+

              we will work with the 1s 3p 5d 7f 9g ... basis set
              ...i.e. with spherical basis functions...

   type   atoms  prim   cont   basis
   ---------------------------------------------------------------------------
    o        2     24     14   def2-SV(P)   [3s2p1d|7s4p1d]
    c       10     24     14   def2-SV(P)   [3s2p1d|7s4p1d]
    s        2     36     18   def2-SV(P)   [4s3p1d|10s7p1d]
    n        2     24     14   def2-SV(P)   [3s2p1d|7s4p1d]
    h        4      4      2   def2-SV(P)   [2s|4s]
    br       1     74     32   def2-SV(P)   [5s4p3d|14s10p6d]
   ---------------------------------------------------------------------------
   total:   21    498    272
   ---------------------------------------------------------------------------

   total number of primitive shells          :   88
   total number of contracted shells         :  120
   total number of cartesian basis functions :  291
   total number of SCF-basis functions       :  272


 integral neglect threshold       :  0.11E-10
 integral storage threshold THIZE :  0.10E-04
 integral storage threshold THIME :         5

 RI-J AUXILIARY BASIS SET information:

              we will work with the 1s 3p 5d 7f 9g ... basis set
              ...i.e. with spherical basis functions...

   type   atoms  prim   cont   basis
   ---------------------------------------------------------------------------
    o        2     70     49   def2-SV(P)   [6s4p3d1f1g|12s5p4d2f1g]
    c       10     70     49   def2-SV(P)   [6s4p3d1f1g|12s5p4d2f1g]
    s        2     77     51   def2-SV(P)   [8s4p3d1f1g|14s5p5d2f1g]
    n        2     70     49   def2-SV(P)   [6s4p3d1f1g|12s5p4d2f1g]
    h        4     16     11   def2-SV(P)   [3s1p1d|5s2p1d]
    br       1     89     58   def2-SV(P)   [8s4p3d2f1g|19s5p5d3f1g]
   ---------------------------------------------------------------------------
   total:   21   1287    890
   ---------------------------------------------------------------------------

   total number of primitive shells          :  140
   total number of contracted shells         :  282
   total number of cartesian basis functions : 1101
   total number of SCF-basis functions       :  890


 symmetry group of the molecule :   c1 

 the group has the following generators :
   c1(z)

    1 symmetry operations found

 there are 1 real representations :   a   

 maximum number of shells which are related by symmetry :  1


    mo occupation :
   irrep   mo's   occupied
    a      272       81
 
 number of basis functions   :                    272
 number of occupied orbitals :                     81
 
  
           ------------------
           density functional
           ------------------
 PBE0 hybrid functional
 exchange:    3/4 (LDA+PBE) + 1/4 HF
 correlation: LDA (PW) + PBE

 iterations will be done with small grid
  
 spherical integration : Lebedev's spherical grid
 spherical gridsize    :                     5
    i.e. gridpoints    :                   590
 value for diffuse not defined
 radial integration    : Chebyshev 2nd kind (scaling 3)
 radial gridsize       :                     8
 integration cells     :                    21
 partition function    : becke
 partition sharpness   :                     3
  

 biggest AO integral is expected to be    21.668154127
  
           ------------------------
               RI-J - INFORMATION
           ------------------------
 Contributions to RI integral batches: 
  neglected integral batches:                  2258
  direct contribution:                            0
  memory contribution:                  5002
 Memory core needed for (P|Q) and Cholesky      7 MByte
 Memory core minimum needed except of (P|Q)     1 MByte
 Total minimum memory core needed (sum)         7 MByte
  
 ****************************************
 Memory allocated for RI-J   249 MByte
 ****************************************
                                            

          ------------------------
          nuclear repulsion energy  :   1710.55475831    
          ------------------------


         -----------------
         -S,T+V- integrals
         -----------------

 1e-integrals will be neglected if expon. factor < 0.114844E-11
 
   Difference densities algorithm switched on.
   The maximal number of linear combinations of
   difference densities is                    20 .

 DIIS switched on: error vector is FDS-SDF
 Max. Iterations for DIIS is     :   4
 DIIS matrix (see manual) 
    Scaling factor of diagonals  :  1.200
    threshold for scaling factor :  0.000

 scf convergence criterion : increment of total energy < .1000000D-06
                  and increment of one-electron energy < .1000000D-03

  MOs are in ASCII format !


 automatic virtual orbital shift switched on 
      shift if e(lumo)-e(homo) < 0.10000000    


 reading orbital data $scfmo  from file mos
 orbital characterization : scfconv=7

 dump of DSCF restart information has been disabled !


 Starting SCF iterations

          Overall gridpoints after grid construction =        122134

 ITERATION  ENERGY          1e-ENERGY        2e-ENERGY     NORM[dD(SAO)]  TOL
   1  -4011.7260131372    -8981.9613366     3259.6805651    0.000D+00 0.115D-10
                            Exc = -172.724620682     Coul =  3488.06378463    
                            exK = -55.6585988133    
                              N = 162.00000373    
                            current damping = 0.700
 
          max. resid. norm for Fia-block=  5.601D-03 for orbital      1a         
          max. resid. fock norm         =  1.381D-02 for orbital    199a         

 ITERATION  ENERGY          1e-ENERGY        2e-ENERGY     NORM[dD(SAO)]  TOL
   2  -4011.7260596459    -8981.9663836     3259.6855656    0.389D-01 0.726D-11
                            Exc = -172.725602870      Eck =  3432.41116848    
                              N = 162.00000370    
                            current damping = 0.650
 
          Norm of current diis error: 0.84104E-02
          max. resid. norm for Fia-block=  2.307D-03 for orbital      1a         
          max. resid. fock norm         =  4.972D-03 for orbital      1a         

 ITERATION  ENERGY          1e-ENERGY        2e-ENERGY     NORM[dD(SAO)]  TOL
   3  -4011.7260673839    -8981.9713649     3259.6905392    0.753D-02 0.558D-11
                            Exc = -172.724467433      Eck =  3432.41500666    
                              N = 162.00000367    
                            current damping = 0.500
 
          Norm of current diis error: 0.55557E-02
          max. resid. norm for Fia-block=  9.092D-04 for orbital      1a         
          max. resid. fock norm         =  1.959D-03 for orbital      1a         

 ITERATION  ENERGY          1e-ENERGY        2e-ENERGY     NORM[dD(SAO)]  TOL
   4  -4011.7260717024    -8981.9629193     3259.6820893    0.230D-02 0.519D-11
                            Exc = -172.725152827      Eck =  3432.40724211    
                              N = 162.00000367    
                            current damping = 0.550
 
          Norm of current diis error: 0.18477E-02
          max. resid. norm for Fia-block=  3.031D-04 for orbital      1a         
          max. resid. fock norm         =  6.530D-04 for orbital      1a         

 ITERATION  ENERGY          1e-ENERGY        2e-ENERGY     NORM[dD(SAO)]  TOL
   5  -4011.7260722518    -8981.9667811     3259.6859505    0.771D-03 0.491D-11
                            Exc = -172.725060479      Eck =  3432.41101099    
                              N = 162.00000366    
                            current damping = 0.600
 
          Norm of current diis error: 0.56922E-03
          max. resid. norm for Fia-block=  1.076D-04 for orbital      1a         
          max. resid. fock norm         =  2.317D-04 for orbital      1a         
          mo-orthogonalization: Cholesky decomposition

 ITERATION  ENERGY          1e-ENERGY        2e-ENERGY     NORM[dD(SAO)]  TOL
   6  -4011.7260725430    -8981.9663436     3259.6855127    0.298D-03 0.476D-11
                            Exc = -172.725026678      Eck =  3432.41053939    
                              N = 162.00000368    
                            current damping = 0.650
 
          Norm of current diis error: 0.25867E-03
          max. resid. norm for Fia-block=  4.033D-05 for orbital      1a         
          max. resid. fock norm         =  8.688D-05 for orbital      1a         

 ENERGY CONVERGED !

          Overall gridpoints after grid construction =        372371

 ITERATION  ENERGY          1e-ENERGY        2e-ENERGY     NORM[dD(SAO)]  TOL
   7  -4011.7260687731    -8981.9661969     3259.6853699    0.120D-03 0.466D-11
                            Exc = -172.725027624      Eck =  3432.41039749    
                              N = 161.99999781    
                            current damping = 0.500
 
          Norm of current diis error: 0.11134E-03
          max. resid. norm for Fia-block=  1.589D-05 for orbital      1a         
          max. resid. fock norm         =  3.423D-05 for orbital      1a         

 End of SCF iterations

   convergence criteria satisfied after     7 iterations


                  ------------------------------------------ 
                 |  total energy      =  -4011.72606877310  |
                  ------------------------------------------ 
                 :  kinetic energy    =   4002.29324990370  :
                 :  potential energy  =  -8014.01931867680  :
                 :  virial theorem    =      1.99764868819  :
                 :  wavefunction norm =      1.00000000000  :
                  .......................................... 


 <geterg> : there is no data group $energy 


 orbitals $scfmo  will be written to file mos

    irrep                 77a         78a         79a         80a         81a   
 eigenvalues H         -0.16869    -0.16287    -0.12914    -0.12063    -0.07416
            eV          -4.5904     -4.4320     -3.5141     -3.2825     -2.0181
 occupation              2.0000      2.0000      2.0000      2.0000      2.0000 

    irrep                 82a         83a         84a         85a         86a   
 eigenvalues H          0.01738     0.10906     0.11900     0.12817     0.13554
            eV           0.4730      2.9677      3.2383      3.4876      3.6882
 
 
 
 
 ==============================================================================
                           electrostatic moments
 ==============================================================================

 reference point for electrostatic moments:    0.00000   0.00000   0.00000

 
              nuc           elec       ->  total
 ------------------------------------------------------------------------------
                          charge      
 ------------------------------------------------------------------------------
         161.000000    -162.000000      -1.000000
 
 ------------------------------------------------------------------------------
                       dipole moment  
 ------------------------------------------------------------------------------
   x    -632.722453     637.737160       5.014708
   y     777.270513    -783.421309      -6.150795
   z       0.751084      -0.762839      -0.011755
 
   | dipole moment | =     7.9360 a.u. =    20.1712 debye 
 
 ------------------------------------------------------------------------------
                     quadrupole moment
 ------------------------------------------------------------------------------
  xx    7674.861216   -7849.073596    -174.212380
  yy    5801.375032   -5937.994902    -136.619870
  zz       5.715162     -98.530993     -92.815831
  xy   -4802.969332    4837.495886      34.526554
  xz      -5.001394       5.041713       0.040319
  yz       9.030844      -9.116130      -0.085286
 
     1/3  trace=    -134.549360
     anisotropy=      92.493080
 
 ==============================================================================
 


    ------------------------------------------------------------------------
         total  cpu-time :  1 minutes and  0 seconds
         total wall-time :  1 minutes and  0 seconds
    ------------------------------------------------------------------------

   ****  ridft : all done  ****


    2018-02-09 17:26:01.487 


 egrad (missouri) : TURBOMOLE V7.2 ( 21454 ) 4 Oct 2017 at 12:24:43
 Copyright (C) 2017 TURBOMOLE GmbH, Karlsruhe


    2018-02-09 17:26:01.507 




                               e g r a d

                             TURBOMOLE GmbH


             integral direct evaluation of excited state
                     and polarizability gradients
                 and first-order nonadiabatic couplings



          references (see also programs escf, dscf and ridft) 

          review 
          F. Furche and D. Rappoport,  
          "Density functional methods for excited states: 
          equilibrium structure and electronic spectra",
          ch. III of "Computational Photochemistry", ed. by 
          M. Olivucci, vol. 16 of "Theoretical and Computational 
          Chemistry", Elsevier, Amsterdam, 2005.

          nonorthonormal Krylov space methods 
          F. Furche, B. T. Krull, B. D. Nguyen, J. Kwon, 
          J. Chem. Phys. 144 (2016), 174105.

          RI-J method 
          D. Rappoport and F. Furche, 
          J. Chem. Phys. 122 (2005), 064105.

          Lagrangian method, implementation, benchmarks 
          F. Furche and R. Ahlrichs,
          J. Chem. Phys. 117 (2002), 7433;
          J. Chem. Phys. 121 (2004), 12772 (E).

          Polarizability derivatives, Raman intensities 
          D. Rappoport and F. Furche, 
          J. Chem. Phys. 126 (2007), 201104.

          First-order nonadiabatic couplings 
          R. Send and F. Furche, 
          J. Chem. Phys. 132 (2010), 044107.
                                     




              +--------------------------------------------------+
              | Atomic coordinate, charge and isotop information |
              +--------------------------------------------------+

                    atomic coordinates            atom    charge  isotop
        -12.81303530    6.80079181    0.00660274    o      8.000     0
        -10.87200620    5.50585570   -0.00089873    c      6.000     0
         -8.33003697    6.65936110    0.01013115    c      6.000     0
         -6.09947467    5.19222261    0.00171201    c      6.000     0
         -6.19318899    2.52767292   -0.00226593    c      6.000     0
         -8.59885031    1.37244515   -0.01245218    c      6.000     0
        -10.79897947    2.76973631   -0.00372920    c      6.000     0
         -3.01653347    6.22325430    0.00955036    s     16.000     0
         -2.03732038    3.03336541    0.00262245    c      6.000     0
         -3.85687081    1.36160833   -0.00693500    n      7.000     0
          0.63139990    2.55262878    0.00193778    c      6.000     0
          1.62357540   -0.65068446   -0.00970112    s     16.000     0
          2.37360806    4.31217559    0.00814536    n      7.000     0
          4.78128472    3.37595912    0.00689193    c      6.000     0
          4.85287584    0.44661703   -0.00564577    c      6.000     0
          5.88508938   -0.23376573    1.68032536    h      1.000     0
          5.88273645   -0.21875876   -1.69459824    h      1.000     0
          6.73327197    4.59361641    0.01225882    o      8.000     0
         -8.16801126   10.16959949    0.01852915    br    35.000     0
         -8.66588346   -0.70140406   -0.01571667    h      1.000     0
        -12.64994693    1.84040408   -0.01422097    h      1.000     0
 
       center of nuclear mass  :   -4.07529314    5.04396295    0.00527007
       center of nuclear charge:   -3.92995312    4.82776716    0.00466512

              +--------------------------------------------------+
              |               basis set information              |
              +--------------------------------------------------+

              we will work with the 1s 3p 5d 7f 9g ... basis set
              ...i.e. with spherical basis functions...

   type   atoms  prim   cont   basis
   ---------------------------------------------------------------------------
    o        2     24     14   def2-SV(P)   [3s2p1d|7s4p1d]
    c       10     24     14   def2-SV(P)   [3s2p1d|7s4p1d]
    s        2     36     18   def2-SV(P)   [4s3p1d|10s7p1d]
    n        2     24     14   def2-SV(P)   [3s2p1d|7s4p1d]
    h        4      4      2   def2-SV(P)   [2s|4s]
    br       1     74     32   def2-SV(P)   [5s4p3d|14s10p6d]
   ---------------------------------------------------------------------------
   total:   21    498    272
   ---------------------------------------------------------------------------

   total number of primitive shells          :   88
   total number of contracted shells         :  120
   total number of cartesian basis functions :  291
   total number of SCF-basis functions       :  272


 residuum convergence criterium   :  0.10E-04


 integral neglect threshold       :  0.11E-10
 integral storage threshold THIZE :  0.10E-04
 integral storage threshold THIME :         5

 
             FOUND RI-J FLAG !
 
  
 AUXILIARY BASIS SET information:

              we will work with the 1s 3p 5d 7f 9g ... basis set
              ...i.e. with spherical basis functions...

   type   atoms  prim   cont   basis
   ---------------------------------------------------------------------------
    o        2     70     49   def2-SV(P)   [6s4p3d1f1g|12s5p4d2f1g]
    c       10     70     49   def2-SV(P)   [6s4p3d1f1g|12s5p4d2f1g]
    s        2     77     51   def2-SV(P)   [8s4p3d1f1g|14s5p5d2f1g]
    n        2     70     49   def2-SV(P)   [6s4p3d1f1g|12s5p4d2f1g]
    h        4     16     11   def2-SV(P)   [3s1p1d|5s2p1d]
    br       1     89     58   def2-SV(P)   [8s4p3d2f1g|19s5p5d3f1g]
   ---------------------------------------------------------------------------
   total:   21   1287    890
   ---------------------------------------------------------------------------

   total number of primitive shells          :  140
   total number of contracted shells         :  282
   total number of cartesian basis functions : 1101
   total number of SCF-basis functions       :  890

 RPA SINGLET-EXCITATION-CALCULATION 
 
             FOUND DFT-FLAG !
 

 symmetry group of the molecule :   c1 

 the group has the following generators :
   c1(z)

    1 symmetry operations found

 there are 1 real representations :   a   

 maximum number of shells which are related by symmetry :  1

 IRREP of excited state :   a   
 

 determining totally symmetric integral contributions 
    - equivalent to irreducible tensor elements - 
 which can be formed within each triple of representations :

             representation triple      contributions

              a     a     a               1

    mo occupation :
   irrep   mo's   occupied
    a      272       81
 
 number of basis functions   :                    272
 number of occupied orbitals :                     81
 
  
           ------------------
           density functional
           ------------------
 PBE0 hybrid functional
 exchange:    3/4 (LDA+PBE) + 1/4 HF
 correlation: LDA (PW) + PBE

 iterations will be done with small grid
  
 spherical integration : Lebedev's spherical grid
 spherical gridsize    :                     5
    i.e. gridpoints    :                   590
 value for diffuse not defined
 radial integration    : Chebyshev 2nd kind (scaling 3)
 radial gridsize       :                     8
 integration cells     :                    21
 partition function    : becke
 partition sharpness   :                     3
  
  
           ----------------------
               RI - INFORMATION
           ----------------------

 biggest AO integral is expected to be    21.668154127

 Threshold for integral neglect (rithr2):   0.11E-10
 Threshold for integral neglect (rithr1):   0.11E-10

 Contributions to RI integral batches: 
  neglected integral batches:                  2117
  direct contribution:                            0
  memory contribution:                  5143
 Core memory available (ricore)            5000 MiB
 Core memory needed for (P|Q) and Cholesky 7 MiB
 Core memory used for integrals            250 MiB
  
 ****************************************
 Memory allocated for RIDFT 256 MiB
 ****************************************
                                            
  MOs are in ASCII format !


 reading orbital data $scfmo  from file mos
 orbital characterization : scfconv=7
 preparing numerical integration ....
          Overall gridpoints after grid construction =        122134

 Calculating ground state density on molecular grid

 Integral of ground state density: N =   162.0000036780675    



 number of non-frozen orbitals          :   272
 number of non-frozen occupied orbitals :    81



                        -------------------
                         excitation vector 
                        -------------------


 dimension of super-tensorspace: 2

          IRREP   tensor space dimension   number of roots

           a             15471                   1

 maximum number of Davidson iterations set to   25


 machine precision: 2.22D-16


 logfile sing_a    will be constructed


                       Nonorthonormal Krylov Space Iteration


 total number of roots to be determined:   1


 maximum core memory set to  5000 MB,
 corresponding to     3796 vectors in CAO basis


 maximum number of simultaneously treated vectors (including degeneracy):        2


 Iteration IRREP Converged      Max. Euclidean
                 roots          residual norm

    1       a        0        3.050907915185480D-02
 
    2       a        0        6.517634319751706D-02
 
    3       a        0        4.595929210628162D-02
 
    4       a        0        1.969180044808330D-02
 
    5       a        0        7.081496562046302D-03
 
    6       a        0        3.033292088622333D-03
 
    7       a        0        1.477210288268301D-03
 
    8       a        0        6.299402764946523D-04
 
    9       a        0        2.813013022485603D-04
 
   10       a        0        1.053912981727120D-04
 
   11       a        0        5.955066393013449D-05
 
   12       a        0        1.851040761008350D-05
 
   13       a        1        8.368850055589905D-06
 

 converged!


 Switching to fine grid

 preparing numerical integration ....
          Overall gridpoints after grid construction =        372371

 Calculating ground state density on molecular grid

 Integral of ground state density: N =   161.9999978056954    



 Iteration IRREP Converged      Max. Euclidean
                 roots          residual norm

   14       a        0        1.055493807030296D-05
 

 NOTE: Residual norms are larger than 1.00D-05 due to mgrid option!

 Eigenpairs written on logfile sing_a   



 IRREP   Vector     Eigenvalue           Euclidean residual norm

  a         1    8.390071265504911D-02    1.055493807030296D-05
 




                    Selection rules for point group c1  


 Subduction with respect to c1  :

    Polar vector representation: a                           

    Axial vector representation: a                           

    Symmetric second rank tensor representation: a                           




                            Ground state


 Total energy:                           -4011.726068773000    

 Charge:

               elec          nuc         total

          -162.000000   161.000000    -1.000000


 Electric dipole moment:

               elec          nuc         total   

    x      637.737160  -632.722453     5.014708    Norm:              7.935976
    y     -783.421309   777.270513    -6.150795
    z       -0.762839     0.751084    -0.011755    Norm / debye:     20.171391


 Electric quadrupole moment:

               elec          nuc         total   

   xx    -7849.073596  7674.861216  -174.212380
   yy    -5937.994902  5801.375032  -136.619870    1/3*trace:      -134.549360
   zz      -98.530993     5.715162   -92.815831
   xy     4837.495886 -4802.969332    34.526554
   xz        5.041713    -5.001394     0.040319    Anisotropy:       92.493080
   yz       -9.116130     9.030844    -0.085286



 ==============================================================================

                              I R R E P   a   

 ==============================================================================


 Excitation is electric dipole allowed

 Excitation is magnetic dipole allowed

 Excitation is electric quadrupole allowed




                         1 singlet a excitation


 Total energy:                           -4011.642168060345    

 Excitation energy:                      0.8390071265504911E-01

 Excitation energy / eV:                  2.283055531001874    

 Excitation energy / nm:                  543.0627609485271    

 Excitation energy / cm^(-1):             18414.07792543372    


 Oscillator strength:

    velocity representation:             0.3147375629829714    

    length representation:               0.3665575356671165    

    mixed representation:                0.3396548174247662    


 Rotatory strength:

    velocity representation:            -0.5269220560387390E-05

    velocity rep. / 10^(-40)erg*cm^3:   -0.3404170269078651    

    length representation:              -0.4629922188949286E-05

    length rep. / 10^(-40)erg*cm^3:     -0.2991152729922917    


 Dominant contributions:

      occ. orbital   energy / eV   virt. orbital     energy / eV   |coeff.|^2*100
       81 a              -2.02          82 a               0.47       91.7
 

 Change of electron number:

            -0.000000


 Electric transition dipole moment (velocity rep.):

    x        2.331321        Norm:                  2.372122
    y       -0.438071
    z        0.001123        Norm / debye:          6.029379


 Electric transition dipole moment (length rep.):

    x        2.513100        Norm:                  2.559964
    y       -0.487593
    z        0.000245        Norm / debye:          6.506829


 Magnetic transition dipole moment / i:

    x       -0.000002        Norm:                  0.001103
    y        0.000001
    z       -0.001103        Norm / Bohr mag.:      0.302191


 Electric quadrupole transition moment:

   xx      -18.808226
   yy       -4.489444        1/3*trace:            -7.729300
   zz        0.109771
   xy       11.327915
   xz        0.005201        Anisotropy:           26.019234
   yz       -0.003157
 

 Excited state no.    1 chosen for optimization


                       ----------------------
                        CPKS right-hand side 
                       ----------------------


          IRREP   tensor space dimension   number of roots

           a             15471                   1

                          ----------------
                           CPKS equations 
                          ----------------


 logfile dipl_a    will be constructed

 Switching to coarse grid

 preparing numerical integration ....
          Overall gridpoints after grid construction =        122134


                       Nonorthonormal Krylov Space Iteration


 total number of roots to be determined:   1


 maximum core memory set to  5000 MB,
 corresponding to     7544 vectors in CAO basis


 maximum number of simultaneously treated vectors (including degeneracy):        1


 Iteration IRREP Converged      Max. Euclidean
                 roots          residual norm

    1       a        0        1.080101871686982D-01
 
    2       a        0        4.830559857234183D-02
 
    3       a        0        2.214408498688856D-02
 
    4       a        0        9.339285860271126D-03
 
    5       a        0        3.513053251761492D-03
 
    6       a        0        1.229983024824516D-03
 
    7       a        0        4.752677908579718D-04
 
    8       a        0        1.631221966303975D-04
 
    9       a        0        8.132955864812828D-05
 
   10       a        0        1.886257776430371D-05
 
   11       a        1        7.941986924415605D-06
 

 converged!


 Switching to fine grid

 preparing numerical integration ....
          Overall gridpoints after grid construction =        372371

 Iteration IRREP Converged      Max. Euclidean
                 roots          residual norm

   12       a        0        1.620425658130364D-05
 

 NOTE: Residual norms are larger than 1.00D-05 due to mgrid option!

 Eigenpairs written on logfile dipl_a   



 IRREP   Vector     Frequency            Euclidean residual norm

  a         1    0.000000000000000D+00    1.620425658130364D-05
 

                          -------------------
                           relaxed densities 
                          -------------------


    ----------------------------------------
     S+T+V CONTRIBUTIONS TO ENERGY GRADIENT 
    ----------------------------------------

 1e-integral 1st. derivatives will be neglected if expon. factor < 0.100000E-10


    -----------------------------------------------
     TWO ELECTRON CONTRIBUTIONS TO ENERGY GRADIENT 
    -----------------------------------------------

 setting up bound for integral derivative estimation

 increment for numerical differentiation : 0.00050000

 biggest AO integral is expected to be    21.668154127
 biggest cartesian 1st derivative AO integral is expected to be    83.347447328

 biggest 1-particle AO density matrix element is expected to be    3.2070831455

 core memory to be involved in 2e-gradient :
   symmetry shell pair data              :         1
   two particle density+dens. estimates  :      8556
   derivative integrals                  :      8498
   derivative integral bound             :     21780
   totally                               :     30276


 setting up bound for integral derivative estimation

 increment for numerical differentiation : 0.00050000

 biggest AO integral is expected to be    21.668154127
 biggest cartesian 1st derivative AO integral is expected to be    83.347447328

 2e-integral 1st. derivatives will be neglected if expon. factor < 0.100000E-06
 outer boundary for 2e-integral derivative neglection is 0.162042E-08

 Integrated ground state density     :   161.9999978056950    


          ------------------------------------------------
           cartesian gradient of the energy (hartree/bohr)
          ------------------------------------------------

  ATOM      1 o           2 c           3 c           4 c           5 c 
dE/dx  0.2717549D-02 -0.3966930D-02  0.2226446D-02 -0.2679449D-02  0.1608765D-02
dE/dy -0.1897284D-02  0.2744000D-02 -0.2681313D-02  0.2396105D-02 -0.2616698D-02
dE/dz  0.3628108D-03 -0.1132636D-02  0.6481498D-03 -0.5769381D-03  0.7199806D-03

  ATOM      6 c           7 c           8 s           9 c          10 n 
dE/dx -0.3507897D-02  0.4525690D-02  0.3489105D-05  0.7861906D-03 -0.6747151D-03
dE/dy  0.4175344D-02 -0.1732829D-02  0.6896204D-03 -0.1379831D-02  0.1257308D-02
dE/dz -0.7109433D-03  0.8802910D-03 -0.1917954D-04  0.2265806D-03 -0.2725458D-03

  ATOM     11 c          12 s          13 n          14 c          15 c 
dE/dx  0.4731339D-03 -0.1224047D-03 -0.3293165D-03  0.1002292D-02 -0.7656779D-03
dE/dy -0.3168937D-03  0.2836511D-03  0.5557666D-04  0.2860063D-03  0.9765665D-03
dE/dz  0.2796853D-04 -0.1248170D-04 -0.9817163D-04  0.1527137D-03 -0.1012297D-02

  ATOM     16 h          17 h          18 o          19 br         20 h 
dE/dx  0.5864530D-03 -0.8571734D-05 -0.7413088D-03 -0.6962455D-04  0.2883742D-03
dE/dy -0.4228552D-03 -0.4777219D-04 -0.7031154D-03  0.9832552D-03 -0.1830681D-02
dE/dz  0.1163792D-02 -0.2054590D-03 -0.3997991D-04 -0.5962780D-04  0.1306753D-03

  ATOM     21 h 
dE/dx -0.1364812D-02
dE/dy -0.2317423D-03
dE/dz -0.1727220D-03
 
 resulting FORCE  (fx,fy,fz) = (-.123D-04,-.136D-04,-.197D-07)
 resulting MOMENT (mx,my,mz) = (0.182D-05,0.111D-04,0.787D-04)


 **********************************************************************
  |maximum component of gradient| : 0.45256897E-02  (atom  7 c )       
   gradient norm                  : 0.12027431E-01
 **********************************************************************

 exx =      -0.007438 eyy =       0.001309 ezz =       0.002324
 eyz =      -0.000677 exz =       0.001079 exy =       0.006815


 <getgrd> : data group $grad  is missing 

   ***  cartesian gradients written onto <gradient>  ***
 
 
 
 ==============================================================================
                           electrostatic moments
 ==============================================================================

 reference point for electrostatic moments:    0.00000   0.00000   0.00000

 
              nuc           gs,e       ->  gs,tot          excit     ->  total
 ------------------------------------------------------------------------------
                          charge      
 ------------------------------------------------------------------------------
         161.000000    -162.000000      -1.000000       0.000000      -1.000000
 
 ------------------------------------------------------------------------------
                       dipole moment  
 ------------------------------------------------------------------------------
   x    -632.722453     637.737160       5.014708      -1.242700       3.772008
   y     777.270513    -783.421309      -6.150795       1.268055      -4.882741
   z       0.751084      -0.762839      -0.011755       0.003202      -0.008553
 
   | dipole moment | =     6.1700 a.u. =    15.6827 debye 
 
 ------------------------------------------------------------------------------
                     quadrupole moment
 ------------------------------------------------------------------------------
  xx    7674.861216   -7849.073596    -174.212380       2.067400    -172.144980
  yy    5801.375032   -5937.994902    -136.619870      13.547643    -123.072227
  zz       5.715162     -98.530993     -92.815831       0.196947     -92.618883
  xy   -4802.969332    4837.495886      34.526554     -12.120704      22.405850
  xz      -5.001394       5.041713       0.040319      -0.027509       0.012810
  yz       9.030844      -9.116130      -0.085286       0.024034      -0.061251
 
     1/3  trace=    -129.278697
     anisotropy=      79.599301
 
 ==============================================================================
 


    ------------------------------------------------------------------------
         total  cpu-time :  5 minutes and 57 seconds
         total wall-time :  5 minutes and 57 seconds
    ------------------------------------------------------------------------

   ****  egrad : all done  ****


    2018-02-09 17:31:58.734 

$dipole from egrad
  x     3.77200807165048    y    -4.88274056086436    z    -0.00855332433767    a.u.
   | dipole | =   15.6827711651  debye
/work/bdnguye2/luc_project/7_brluc/ex_geo_opt/save/numforce/KraftWerk/p048
