 operating system is UNIX !

 ridft (missouri) : TURBOMOLE V7.2 ( 21454 ) 4 Oct 2017 at 12:48:15
 Copyright (C) 2017 TURBOMOLE GmbH, Karlsruhe


    2018-02-09 17:52:37.467 



                                  r i d f t

                        DFT program with RI approximation 
                                for coulomb part 




                                                 
                                 References:     
                                                 
          TURBOMOLE:                             
              R. Ahlrichs, M. Baer, M. Haeser, H. Horn, and
              C. Koelmel
              Electronic structure calculations on workstation
              computers: the program system TURBOMOLE
              Chem. Phys. Lett. 162: 165 (1989)
          Density Functional:                              
              O. Treutler and R. Ahlrichs                      
              Efficient Molecular Numerical Integration Schemes
              J. Chem. Phys. 102: 346 (1995)                   
          Parallel Version:                                
              Performance of parallel TURBOMOLE for Density    
              Functional Calculations                          
              M. v. Arnim and R. Ahlrichs                      
              J. Comp. Chem. 19: 1746 (1998)                   
          RI-J Method:                                     
              Auxiliary Basis Sets to approximate Coulomb      
              Potentials                                       
              Chem. Phys. Lett. 240: 283 (1995)                
              K. Eichkorn, O. Treutler, H. Oehm, M. Haeser     
              and R. Ahlrichs                                  
              Chem. Phys. Lett. 242: 652 (1995)                
                                                           
              Auxiliary Basis Sets for Main Row Atoms and their
              Use to approximate Coulomb Potentials            
              K. Eichkorn, F. Weigend, O. Treutler and         
              R. Ahlrichs                                      
              Theo. Chem. Acc. 97: 119 (1997)                   
                                                           
              Accurate Coulomb-fitting basis sets for H to Rn 
              F. Weigend                                        
              Phys. Chem. Chem. Phys. 8: 1057 (2006)            
                                                           
          Multipole accelerated RI-J (MARI-J):             
              Fast evaluation of the Coulomb potential for     
              electron densities using multipole accelerated   
              resolution of identity approximation             
              M. Sierka, A. Hogekamp and R. Ahlrichs           
              J. Chem. Phys. 118: 9136 (2003)                  
          RI-JK Method:                                     
              A fully direct RI-HF algorithm: Implementation,
              optimised auxiliary basis sets, demonstration of
              accuracy and efficiency                         
              F. Weigend                                      
              Phys. Chem. Chem. Phys. 4: 4285 (2002)           
          Two-component HF and DFT with spin-orbit coupling:  
              Self-consistent treatment of spin-orbit         
              interactions with efficient Hartree-Fock and    
              density functional methods                      
              M. K. Armbruster, F. Weigend, C. van Wüllen and 
              W. Klopper                                      
              Phys. Chem. Chem. Phys. 10: 1748 (2008)         
          Relativistic all-electron 2c calculations           
              An efficient implementation of two-component    
              relativistic exact-decoupling methods for large 
              molecules                                       
              D. Peng, N. Middendorf, F. Weigend, M. Reiher   
              J. Chem. Phys. 138, 184105 (2013)               
                                         




              +--------------------------------------------------+
              |      general information about current run       |
              +--------------------------------------------------+

 
 PBE0 hybrid functional
 exchange:    3/4 (LDA+PBE) + 1/4 HF
 correlation: LDA (PW) + PBE
 A Hybrid-DFT calculation using the RI-J approximation will be carried out.
 Allocatable memory for RI due to $ricore (MB):                  5000


              +--------------------------------------------------+
              | Atomic coordinate, charge and isotop information |
              +--------------------------------------------------+

                    atomic coordinates            atom    charge  isotop
        -12.81394481    6.80085020    0.00397754    o      8.000     0
        -10.87149494    5.50181015    0.00044448    c      6.000     0
         -8.33505724    6.66177874    0.00466934    c      6.000     0
         -6.09591943    5.18686537    0.00627269    c      6.000     0
         -6.19795831    2.53292448   -0.00609249    c      6.000     0
         -8.59336464    1.36974146   -0.00726970    c      6.000     0
        -10.80057503    2.77407194   -0.00441730    c      6.000     0
         -3.01351872    6.22312348    0.01090645    s     16.000     0
         -2.03733501    3.03290902    0.00226403    c      6.000     0
         -3.85908779    1.36050209   -0.01066231    n      7.000     0
          0.62926429    2.54780439   -0.00133782    c      6.000     0
          1.61817195   -0.65501664   -0.01513351    s     16.000     0
          2.36849103    4.30722003    0.00266979    n      7.000     0
          4.77719819    3.37064880    0.00390121    c      6.000     0
          4.84828009    0.44475642   -0.00902872    c      6.000     0
          5.88420227   -0.23555868    1.68009418    h      1.000     0
          5.88452940   -0.21898994   -1.69121529    h      1.000     0
          6.73238486    4.59821216    0.01039821    o      8.000     0
         -8.16270094   10.16660877    0.02400473    br    35.000     0
         -8.66996999   -0.69628704   -0.02067223    h      1.000     0
        -12.64561475    1.83497169   -0.01422097    h      1.000     0
 
       center of nuclear mass  :   -4.07509412    5.04230031    0.00526240
       center of nuclear charge:   -3.92990909    4.82615883    0.00448454

              +--------------------------------------------------+
              |               basis set information              |
              +--------------------------------------------------+

              we will work with the 1s 3p 5d 7f 9g ... basis set
              ...i.e. with spherical basis functions...

   type   atoms  prim   cont   basis
   ---------------------------------------------------------------------------
    o        2     24     14   def2-SV(P)   [3s2p1d|7s4p1d]
    c       10     24     14   def2-SV(P)   [3s2p1d|7s4p1d]
    s        2     36     18   def2-SV(P)   [4s3p1d|10s7p1d]
    n        2     24     14   def2-SV(P)   [3s2p1d|7s4p1d]
    h        4      4      2   def2-SV(P)   [2s|4s]
    br       1     74     32   def2-SV(P)   [5s4p3d|14s10p6d]
   ---------------------------------------------------------------------------
   total:   21    498    272
   ---------------------------------------------------------------------------

   total number of primitive shells          :   88
   total number of contracted shells         :  120
   total number of cartesian basis functions :  291
   total number of SCF-basis functions       :  272


 integral neglect threshold       :  0.11E-10
 integral storage threshold THIZE :  0.10E-04
 integral storage threshold THIME :         5

 RI-J AUXILIARY BASIS SET information:

              we will work with the 1s 3p 5d 7f 9g ... basis set
              ...i.e. with spherical basis functions...

   type   atoms  prim   cont   basis
   ---------------------------------------------------------------------------
    o        2     70     49   def2-SV(P)   [6s4p3d1f1g|12s5p4d2f1g]
    c       10     70     49   def2-SV(P)   [6s4p3d1f1g|12s5p4d2f1g]
    s        2     77     51   def2-SV(P)   [8s4p3d1f1g|14s5p5d2f1g]
    n        2     70     49   def2-SV(P)   [6s4p3d1f1g|12s5p4d2f1g]
    h        4     16     11   def2-SV(P)   [3s1p1d|5s2p1d]
    br       1     89     58   def2-SV(P)   [8s4p3d2f1g|19s5p5d3f1g]
   ---------------------------------------------------------------------------
   total:   21   1287    890
   ---------------------------------------------------------------------------

   total number of primitive shells          :  140
   total number of contracted shells         :  282
   total number of cartesian basis functions : 1101
   total number of SCF-basis functions       :  890


 symmetry group of the molecule :   c1 

 the group has the following generators :
   c1(z)

    1 symmetry operations found

 there are 1 real representations :   a   

 maximum number of shells which are related by symmetry :  1


    mo occupation :
   irrep   mo's   occupied
    a      272       81
 
 number of basis functions   :                    272
 number of occupied orbitals :                     81
 
  
           ------------------
           density functional
           ------------------
 PBE0 hybrid functional
 exchange:    3/4 (LDA+PBE) + 1/4 HF
 correlation: LDA (PW) + PBE

 iterations will be done with small grid
  
 spherical integration : Lebedev's spherical grid
 spherical gridsize    :                     5
    i.e. gridpoints    :                   590
 value for diffuse not defined
 radial integration    : Chebyshev 2nd kind (scaling 3)
 radial gridsize       :                     8
 integration cells     :                    21
 partition function    : becke
 partition sharpness   :                     3
  

 biggest AO integral is expected to be    21.668154127
  
           ------------------------
               RI-J - INFORMATION
           ------------------------
 Contributions to RI integral batches: 
  neglected integral batches:                  2258
  direct contribution:                            0
  memory contribution:                  5002
 Memory core needed for (P|Q) and Cholesky      7 MByte
 Memory core minimum needed except of (P|Q)     1 MByte
 Total minimum memory core needed (sum)         7 MByte
  
 ****************************************
 Memory allocated for RI-J   249 MByte
 ****************************************
                                            

          ------------------------
          nuclear repulsion energy  :   1710.75481983    
          ------------------------


         -----------------
         -S,T+V- integrals
         -----------------

 1e-integrals will be neglected if expon. factor < 0.114844E-11
 
   Difference densities algorithm switched on.
   The maximal number of linear combinations of
   difference densities is                    20 .

 DIIS switched on: error vector is FDS-SDF
 Max. Iterations for DIIS is     :   4
 DIIS matrix (see manual) 
    Scaling factor of diagonals  :  1.200
    threshold for scaling factor :  0.000

 scf convergence criterion : increment of total energy < .1000000D-06
                  and increment of one-electron energy < .1000000D-03

  MOs are in ASCII format !


 automatic virtual orbital shift switched on 
      shift if e(lumo)-e(homo) < 0.10000000    


 reading orbital data $scfmo  from file mos
 orbital characterization : scfconv=7

 dump of DSCF restart information has been disabled !


 Starting SCF iterations

          Overall gridpoints after grid construction =        122130

 ITERATION  ENERGY          1e-ENERGY        2e-ENERGY     NORM[dD(SAO)]  TOL
   1  -4011.7250607011    -8982.3705667     3259.8906862    0.000D+00 0.115D-10
                            Exc = -172.724306848     Coul =  3488.27324170    
                            exK = -55.6582486695    
                              N = 162.00000440    
                            current damping = 0.700
 
          max. resid. norm for Fia-block=  3.748D-03 for orbital      1a         
          max. resid. fock norm         =  7.725D-03 for orbital      1a         

 ITERATION  ENERGY          1e-ENERGY        2e-ENERGY     NORM[dD(SAO)]  TOL
   2  -4011.7251056406    -8982.3609673     3259.8810418    0.202D-01 0.726D-11
                            Exc = -172.723243973      Eck =  3432.60428579    
                              N = 162.00000435    
                            current damping = 0.650
 
          Norm of current diis error: 0.72302E-02
          max. resid. norm for Fia-block=  1.543D-03 for orbital      1a         
          max. resid. fock norm         =  3.181D-03 for orbital      1a         

 ITERATION  ENERGY          1e-ENERGY        2e-ENERGY     NORM[dD(SAO)]  TOL
   3  -4011.7251139234    -8982.3620868     3259.8821531    0.549D-02 0.562D-11
                            Exc = -172.723749630      Eck =  3432.60590271    
                              N = 162.00000437    
                            current damping = 0.600
 
          Norm of current diis error: 0.43286E-02
          max. resid. norm for Fia-block=  6.081D-04 for orbital      1a         
          max. resid. fock norm         =  1.253D-03 for orbital      1a         

 ITERATION  ENERGY          1e-ENERGY        2e-ENERGY     NORM[dD(SAO)]  TOL
   4  -4011.7251169348    -8982.3594099     3259.8794731    0.184D-02 0.520D-11
                            Exc = -172.723457441      Eck =  3432.60293053    
                              N = 162.00000433    
                            current damping = 0.650
 
          Norm of current diis error: 0.16017E-02
          max. resid. norm for Fia-block=  2.281D-04 for orbital      1a         
          max. resid. fock norm         =  4.699D-04 for orbital      1a         

 ITERATION  ENERGY          1e-ENERGY        2e-ENERGY     NORM[dD(SAO)]  TOL
   5  -4011.7251173752    -8982.3609484     3259.8810112    0.107D-02 0.498D-11
                            Exc = -172.723412399      Eck =  3432.60442363    
                              N = 162.00000435    
                            current damping = 0.700
 
          Norm of current diis error: 0.82603E-03
          max. resid. norm for Fia-block=  8.983D-05 for orbital      1a         
          max. resid. fock norm         =  1.851D-04 for orbital      1a         
          mo-orthogonalization: Cholesky decomposition

 ITERATION  ENERGY          1e-ENERGY        2e-ENERGY     NORM[dD(SAO)]  TOL
   6  -4011.7251177332    -8982.3598355     3259.8798980    0.408D-03 0.484D-11
                            Exc = -172.723469132      Eck =  3432.60336711    
                              N = 162.00000436    
                            current damping = 0.750
 
          Norm of current diis error: 0.31870E-03
          max. resid. norm for Fia-block=  3.699D-05 for orbital      1a         
          max. resid. fock norm         =  7.623D-05 for orbital      1a         

 ENERGY CONVERGED !

          Overall gridpoints after grid construction =        372363

 ITERATION  ENERGY          1e-ENERGY        2e-ENERGY     NORM[dD(SAO)]  TOL
   7  -4011.7251146106    -8982.3600894     3259.8801550    0.132D-03 0.475D-11
                            Exc = -172.723443062      Eck =  3432.60359805    
                              N = 161.99999774    
                            current damping = 0.800
 
          Norm of current diis error: 0.17160E-03
          max. resid. norm for Fia-block=  1.585D-05 for orbital      1a         
          max. resid. fock norm         =  3.267D-05 for orbital      1a         

 End of SCF iterations

   convergence criteria satisfied after     7 iterations


                  ------------------------------------------ 
                 |  total energy      =  -4011.72511461065  |
                  ------------------------------------------ 
                 :  kinetic energy    =   4002.28432417104  :
                 :  potential energy  =  -8014.00943878168  :
                 :  virial theorem    =      1.99764670057  :
                 :  wavefunction norm =      1.00000000000  :
                  .......................................... 


 <geterg> : there is no data group $energy 


 orbitals $scfmo  will be written to file mos

    irrep                 77a         78a         79a         80a         81a   
 eigenvalues H         -0.16865    -0.16336    -0.12858    -0.11965    -0.07388
            eV          -4.5893     -4.4454     -3.4989     -3.2560     -2.0104
 occupation              2.0000      2.0000      2.0000      2.0000      2.0000 

    irrep                 82a         83a         84a         85a         86a   
 eigenvalues H          0.01682     0.10804     0.11836     0.12732     0.13550
            eV           0.4576      2.9401      3.2207      3.4645      3.6871
 
 
 
 
 ==============================================================================
                           electrostatic moments
 ==============================================================================

 reference point for electrostatic moments:    0.00000   0.00000   0.00000

 
              nuc           elec       ->  total
 ------------------------------------------------------------------------------
                          charge      
 ------------------------------------------------------------------------------
         161.000000    -162.000000      -1.000000
 
 ------------------------------------------------------------------------------
                       dipole moment  
 ------------------------------------------------------------------------------
   x    -632.715363     637.760123       5.044760
   y     777.011571    -783.175794      -6.164223
   z       0.722011      -0.730274      -0.008264
 
   | dipole moment | =     7.9654 a.u. =    20.2460 debye 
 
 ------------------------------------------------------------------------------
                     quadrupole moment
 ------------------------------------------------------------------------------
  xx    7670.920509   -7845.584569    -174.664060
  yy    5798.771289   -5935.401735    -136.630446
  zz       5.712775     -98.533703     -92.820928
  xy   -4800.491108    4835.163495      34.672387
  xz      -6.785885       6.808950       0.023065
  yz      10.573167     -10.635441      -0.062274
 
     1/3  trace=    -134.705145
     anisotropy=      92.944072
 
 ==============================================================================
 


    ------------------------------------------------------------------------
         total  cpu-time :  1 minutes and  0 seconds
         total wall-time :  1 minutes and  0 seconds
    ------------------------------------------------------------------------

   ****  ridft : all done  ****


    2018-02-09 17:53:37.883 


 egrad (missouri) : TURBOMOLE V7.2 ( 21454 ) 4 Oct 2017 at 12:24:43
 Copyright (C) 2017 TURBOMOLE GmbH, Karlsruhe


    2018-02-09 17:53:37.895 




                               e g r a d

                             TURBOMOLE GmbH


             integral direct evaluation of excited state
                     and polarizability gradients
                 and first-order nonadiabatic couplings



          references (see also programs escf, dscf and ridft) 

          review 
          F. Furche and D. Rappoport,  
          "Density functional methods for excited states: 
          equilibrium structure and electronic spectra",
          ch. III of "Computational Photochemistry", ed. by 
          M. Olivucci, vol. 16 of "Theoretical and Computational 
          Chemistry", Elsevier, Amsterdam, 2005.

          nonorthonormal Krylov space methods 
          F. Furche, B. T. Krull, B. D. Nguyen, J. Kwon, 
          J. Chem. Phys. 144 (2016), 174105.

          RI-J method 
          D. Rappoport and F. Furche, 
          J. Chem. Phys. 122 (2005), 064105.

          Lagrangian method, implementation, benchmarks 
          F. Furche and R. Ahlrichs,
          J. Chem. Phys. 117 (2002), 7433;
          J. Chem. Phys. 121 (2004), 12772 (E).

          Polarizability derivatives, Raman intensities 
          D. Rappoport and F. Furche, 
          J. Chem. Phys. 126 (2007), 201104.

          First-order nonadiabatic couplings 
          R. Send and F. Furche, 
          J. Chem. Phys. 132 (2010), 044107.
                                     




              +--------------------------------------------------+
              | Atomic coordinate, charge and isotop information |
              +--------------------------------------------------+

                    atomic coordinates            atom    charge  isotop
        -12.81394481    6.80085020    0.00397754    o      8.000     0
        -10.87149494    5.50181015    0.00044448    c      6.000     0
         -8.33505724    6.66177874    0.00466934    c      6.000     0
         -6.09591943    5.18686537    0.00627269    c      6.000     0
         -6.19795831    2.53292448   -0.00609249    c      6.000     0
         -8.59336464    1.36974146   -0.00726970    c      6.000     0
        -10.80057503    2.77407194   -0.00441730    c      6.000     0
         -3.01351872    6.22312348    0.01090645    s     16.000     0
         -2.03733501    3.03290902    0.00226403    c      6.000     0
         -3.85908779    1.36050209   -0.01066231    n      7.000     0
          0.62926429    2.54780439   -0.00133782    c      6.000     0
          1.61817195   -0.65501664   -0.01513351    s     16.000     0
          2.36849103    4.30722003    0.00266979    n      7.000     0
          4.77719819    3.37064880    0.00390121    c      6.000     0
          4.84828009    0.44475642   -0.00902872    c      6.000     0
          5.88420227   -0.23555868    1.68009418    h      1.000     0
          5.88452940   -0.21898994   -1.69121529    h      1.000     0
          6.73238486    4.59821216    0.01039821    o      8.000     0
         -8.16270094   10.16660877    0.02400473    br    35.000     0
         -8.66996999   -0.69628704   -0.02067223    h      1.000     0
        -12.64561475    1.83497169   -0.01422097    h      1.000     0
 
       center of nuclear mass  :   -4.07509412    5.04230031    0.00526240
       center of nuclear charge:   -3.92990909    4.82615883    0.00448454

              +--------------------------------------------------+
              |               basis set information              |
              +--------------------------------------------------+

              we will work with the 1s 3p 5d 7f 9g ... basis set
              ...i.e. with spherical basis functions...

   type   atoms  prim   cont   basis
   ---------------------------------------------------------------------------
    o        2     24     14   def2-SV(P)   [3s2p1d|7s4p1d]
    c       10     24     14   def2-SV(P)   [3s2p1d|7s4p1d]
    s        2     36     18   def2-SV(P)   [4s3p1d|10s7p1d]
    n        2     24     14   def2-SV(P)   [3s2p1d|7s4p1d]
    h        4      4      2   def2-SV(P)   [2s|4s]
    br       1     74     32   def2-SV(P)   [5s4p3d|14s10p6d]
   ---------------------------------------------------------------------------
   total:   21    498    272
   ---------------------------------------------------------------------------

   total number of primitive shells          :   88
   total number of contracted shells         :  120
   total number of cartesian basis functions :  291
   total number of SCF-basis functions       :  272


 residuum convergence criterium   :  0.10E-04


 integral neglect threshold       :  0.11E-10
 integral storage threshold THIZE :  0.10E-04
 integral storage threshold THIME :         5

 
             FOUND RI-J FLAG !
 
  
 AUXILIARY BASIS SET information:

              we will work with the 1s 3p 5d 7f 9g ... basis set
              ...i.e. with spherical basis functions...

   type   atoms  prim   cont   basis
   ---------------------------------------------------------------------------
    o        2     70     49   def2-SV(P)   [6s4p3d1f1g|12s5p4d2f1g]
    c       10     70     49   def2-SV(P)   [6s4p3d1f1g|12s5p4d2f1g]
    s        2     77     51   def2-SV(P)   [8s4p3d1f1g|14s5p5d2f1g]
    n        2     70     49   def2-SV(P)   [6s4p3d1f1g|12s5p4d2f1g]
    h        4     16     11   def2-SV(P)   [3s1p1d|5s2p1d]
    br       1     89     58   def2-SV(P)   [8s4p3d2f1g|19s5p5d3f1g]
   ---------------------------------------------------------------------------
   total:   21   1287    890
   ---------------------------------------------------------------------------

   total number of primitive shells          :  140
   total number of contracted shells         :  282
   total number of cartesian basis functions : 1101
   total number of SCF-basis functions       :  890

 RPA SINGLET-EXCITATION-CALCULATION 
 
             FOUND DFT-FLAG !
 

 symmetry group of the molecule :   c1 

 the group has the following generators :
   c1(z)

    1 symmetry operations found

 there are 1 real representations :   a   

 maximum number of shells which are related by symmetry :  1

 IRREP of excited state :   a   
 

 determining totally symmetric integral contributions 
    - equivalent to irreducible tensor elements - 
 which can be formed within each triple of representations :

             representation triple      contributions

              a     a     a               1

    mo occupation :
   irrep   mo's   occupied
    a      272       81
 
 number of basis functions   :                    272
 number of occupied orbitals :                     81
 
  
           ------------------
           density functional
           ------------------
 PBE0 hybrid functional
 exchange:    3/4 (LDA+PBE) + 1/4 HF
 correlation: LDA (PW) + PBE

 iterations will be done with small grid
  
 spherical integration : Lebedev's spherical grid
 spherical gridsize    :                     5
    i.e. gridpoints    :                   590
 value for diffuse not defined
 radial integration    : Chebyshev 2nd kind (scaling 3)
 radial gridsize       :                     8
 integration cells     :                    21
 partition function    : becke
 partition sharpness   :                     3
  
  
           ----------------------
               RI - INFORMATION
           ----------------------

 biggest AO integral is expected to be    21.668154127

 Threshold for integral neglect (rithr2):   0.11E-10
 Threshold for integral neglect (rithr1):   0.11E-10

 Contributions to RI integral batches: 
  neglected integral batches:                  2115
  direct contribution:                            0
  memory contribution:                  5145
 Core memory available (ricore)            5000 MiB
 Core memory needed for (P|Q) and Cholesky 7 MiB
 Core memory used for integrals            250 MiB
  
 ****************************************
 Memory allocated for RIDFT 257 MiB
 ****************************************
                                            
  MOs are in ASCII format !


 reading orbital data $scfmo  from file mos
 orbital characterization : scfconv=7
 preparing numerical integration ....
          Overall gridpoints after grid construction =        122130

 Calculating ground state density on molecular grid

 Integral of ground state density: N =   162.0000043561188    



 number of non-frozen orbitals          :   272
 number of non-frozen occupied orbitals :    81



                        -------------------
                         excitation vector 
                        -------------------


 dimension of super-tensorspace: 2

          IRREP   tensor space dimension   number of roots

           a             15471                   1

 maximum number of Davidson iterations set to   25


 machine precision: 2.22D-16


 logfile sing_a    will be constructed


                       Nonorthonormal Krylov Space Iteration


 total number of roots to be determined:   1


 maximum core memory set to  5000 MB,
 corresponding to     3796 vectors in CAO basis


 maximum number of simultaneously treated vectors (including degeneracy):        2


 Iteration IRREP Converged      Max. Euclidean
                 roots          residual norm

    1       a        0        3.059101513456041D-02
 
    2       a        0        7.710189452072591D-02
 
    3       a        0        4.269102076028017D-02
 
    4       a        0        1.823521672197771D-02
 
    5       a        0        6.689783549867094D-03
 
    6       a        0        2.930602914539440D-03
 
    7       a        0        1.428573445552260D-03
 
    8       a        0        6.081763058355081D-04
 
    9       a        0        2.728126641684352D-04
 
   10       a        0        1.022503275885406D-04
 
   11       a        0        5.657937978567165D-05
 
   12       a        0        1.722707644841623D-05
 
   13       a        1        7.644900920402943D-06
 

 converged!


 Switching to fine grid

 preparing numerical integration ....
          Overall gridpoints after grid construction =        372363

 Calculating ground state density on molecular grid

 Integral of ground state density: N =   161.9999977437040    



 Iteration IRREP Converged      Max. Euclidean
                 roots          residual norm

   14       a        1        9.994600520580660D-06
 

 converged!

 Eigenpairs written on logfile sing_a   



 IRREP   Vector     Eigenvalue           Euclidean residual norm

  a         1    8.296837924171517D-02    9.994600520580660D-06
 




                    Selection rules for point group c1  


 Subduction with respect to c1  :

    Polar vector representation: a                           

    Axial vector representation: a                           

    Symmetric second rank tensor representation: a                           




                            Ground state


 Total energy:                           -4011.725114611000    

 Charge:

               elec          nuc         total

          -162.000000   161.000000    -1.000000


 Electric dipole moment:

               elec          nuc         total   

    x      637.760123  -632.715363     5.044760    Norm:              7.965382
    y     -783.175794   777.011571    -6.164223
    z       -0.730274     0.722011    -0.008264    Norm / debye:     20.246134


 Electric quadrupole moment:

               elec          nuc         total   

   xx    -7845.584569  7670.920509  -174.664060
   yy    -5935.401735  5798.771289  -136.630446    1/3*trace:      -134.705145
   zz      -98.533703     5.712775   -92.820928
   xy     4835.163495 -4800.491108    34.672387
   xz        6.808950    -6.785885     0.023065    Anisotropy:       92.944072
   yz      -10.635441    10.573167    -0.062274



 ==============================================================================

                              I R R E P   a   

 ==============================================================================


 Excitation is electric dipole allowed

 Excitation is magnetic dipole allowed

 Excitation is electric quadrupole allowed




                         1 singlet a excitation


 Total energy:                           -4011.642146231758    

 Excitation energy:                      0.8296837924171517E-01

 Excitation energy / eV:                  2.257685437129116    

 Excitation energy / nm:                  549.1652732815043    

 Excitation energy / cm^(-1):             18209.45439385298    


 Oscillator strength:

    velocity representation:             0.3054344599518868    

    length representation:               0.3565238912692162    

    mixed representation:                0.3299862247928448    


 Rotatory strength:

    velocity representation:            -0.5926191575142173E-05

    velocity rep. / 10^(-40)erg*cm^3:   -0.3828605187003256    

    length representation:              -0.6236494621330573E-05

    length rep. / 10^(-40)erg*cm^3:     -0.4029075900296273    


 Dominant contributions:

      occ. orbital   energy / eV   virt. orbital     energy / eV   |coeff.|^2*100
       81 a              -2.01          82 a               0.46       91.6
 

 Change of electron number:

             0.000000


 Electric transition dipole moment (velocity rep.):

    x       -2.309245        Norm:                  2.349894
    y        0.435189
    z       -0.000002        Norm / debye:          5.972881


 Electric transition dipole moment (length rep.):

    x       -2.492102        Norm:                  2.538830
    y        0.484858
    z        0.000106        Norm / debye:          6.453111


 Magnetic transition dipole moment / i:

    x        0.000003        Norm:                  0.001074
    y        0.000003
    z        0.001074        Norm / Bohr mag.:      0.294278


 Electric quadrupole transition moment:

   xx       18.687764
   yy        4.468726        1/3*trace:             7.682147
   zz       -0.110049
   xy      -11.261243
   xz       -0.003389        Anisotropy:           25.859213
   yz        0.004345
 

 Excited state no.    1 chosen for optimization


                       ----------------------
                        CPKS right-hand side 
                       ----------------------


          IRREP   tensor space dimension   number of roots

           a             15471                   1

                          ----------------
                           CPKS equations 
                          ----------------


 logfile dipl_a    will be constructed

 Switching to coarse grid

 preparing numerical integration ....
          Overall gridpoints after grid construction =        122130


                       Nonorthonormal Krylov Space Iteration


 total number of roots to be determined:   1


 maximum core memory set to  5000 MB,
 corresponding to     7544 vectors in CAO basis


 maximum number of simultaneously treated vectors (including degeneracy):        1


 Iteration IRREP Converged      Max. Euclidean
                 roots          residual norm

    1       a        0        1.090383859240659D-01
 
    2       a        0        4.872174544271097D-02
 
    3       a        0        2.245174346748986D-02
 
    4       a        0        9.501652821813930D-03
 
    5       a        0        3.582057968011931D-03
 
    6       a        0        1.248112611486342D-03
 
    7       a        0        4.825610451770168D-04
 
    8       a        0        1.665017623974646D-04
 
    9       a        0        8.305272345262817D-05
 
   10       a        0        1.907714897594545D-05
 
   11       a        1        8.076911936152933D-06
 

 converged!


 Switching to fine grid

 preparing numerical integration ....
          Overall gridpoints after grid construction =        372363

 Iteration IRREP Converged      Max. Euclidean
                 roots          residual norm

   12       a        0        1.628621864706584D-05
 

 NOTE: Residual norms are larger than 1.00D-05 due to mgrid option!

 Eigenpairs written on logfile dipl_a   



 IRREP   Vector     Frequency            Euclidean residual norm

  a         1    0.000000000000000D+00    1.628621864706584D-05
 

                          -------------------
                           relaxed densities 
                          -------------------


    ----------------------------------------
     S+T+V CONTRIBUTIONS TO ENERGY GRADIENT 
    ----------------------------------------

 1e-integral 1st. derivatives will be neglected if expon. factor < 0.100000E-10


    -----------------------------------------------
     TWO ELECTRON CONTRIBUTIONS TO ENERGY GRADIENT 
    -----------------------------------------------

 setting up bound for integral derivative estimation

 increment for numerical differentiation : 0.00050000

 biggest AO integral is expected to be    21.668154127
 biggest cartesian 1st derivative AO integral is expected to be    83.347447328

 biggest 1-particle AO density matrix element is expected to be    3.2069923438

 core memory to be involved in 2e-gradient :
   symmetry shell pair data              :         1
   two particle density+dens. estimates  :      8556
   derivative integrals                  :      8498
   derivative integral bound             :     21780
   totally                               :     30276


 setting up bound for integral derivative estimation

 increment for numerical differentiation : 0.00050000

 biggest AO integral is expected to be    21.668154127
 biggest cartesian 1st derivative AO integral is expected to be    83.347447328

 2e-integral 1st. derivatives will be neglected if expon. factor < 0.100000E-06
 outer boundary for 2e-integral derivative neglection is 0.162051E-08

 Integrated ground state density     :   161.9999977437032    


          ------------------------------------------------
           cartesian gradient of the energy (hartree/bohr)
          ------------------------------------------------

  ATOM      1 o           2 c           3 c           4 c           5 c 
dE/dx  0.1722056D-02 -0.1625757D-02 -0.1856846D-02  0.8400135D-03 -0.2343166D-02
dE/dy -0.9554793D-03 -0.1295332D-02  0.5070022D-03 -0.3687279D-02  0.1746398D-02
dE/dz  0.8402414D-04 -0.1767420D-03 -0.3483779D-03  0.3877330D-03 -0.3699145D-03

  ATOM      6 c           7 c           8 s           9 c          10 n 
dE/dx  0.2613290D-02  0.3649840D-03  0.7347457D-03  0.2678529D-02 -0.1584352D-02
dE/dy -0.1279244D-02  0.3446625D-02  0.1274461D-02  0.1776023D-03 -0.3446172D-03
dE/dz  0.4981334D-03  0.2519091D-03 -0.1807256D-03  0.4958190D-03 -0.2720193D-03

  ATOM     11 c          12 s          13 n          14 c          15 c 
dE/dx  0.1155748D-02 -0.7166018D-03 -0.2034731D-02 -0.3262447D-02 -0.1703379D-02
dE/dy -0.7607755D-04  0.2242544D-03 -0.2533604D-03 -0.4089929D-02  0.1368161D-02
dE/dz  0.5784972D-04  0.2578774D-05 -0.2832932D-03  0.2755418D-03 -0.3026167D-02

  ATOM     16 h          17 h          18 o          19 br         20 h 
dE/dx  0.1490648D-02 -0.1746008D-03  0.4508844D-02  0.2725706D-03 -0.2225589D-03
dE/dy -0.8170691D-03  0.3489800D-03  0.3209335D-02  0.4509304D-03  0.6201160D-03
dE/dz  0.2123938D-02  0.7602993D-03 -0.2671274D-04  0.7195667D-04 -0.1716784D-03

  ATOM     21 h 
dE/dx -0.8684045D-03
dE/dy -0.5881415D-03
dE/dz -0.1542391D-03
 
 resulting FORCE  (fx,fy,fz) = (-.114D-04,-.127D-04,-.872D-07)
 resulting MOMENT (mx,my,mz) = (0.850D-05,-.141D-04,0.905D-04)


 **********************************************************************
  |maximum component of gradient| : 0.45088438E-02  (atom 18 o )       
   gradient norm                  : 0.12511488E-01
 **********************************************************************

 exx =       0.012221 eyy =      -0.005802 ezz =       0.002318
 eyz =      -0.001975 exz =       0.002911 exy =       0.008645


 <getgrd> : data group $grad  is missing 

   ***  cartesian gradients written onto <gradient>  ***
 
 
 
 ==============================================================================
                           electrostatic moments
 ==============================================================================

 reference point for electrostatic moments:    0.00000   0.00000   0.00000

 
              nuc           gs,e       ->  gs,tot          excit     ->  total
 ------------------------------------------------------------------------------
                          charge      
 ------------------------------------------------------------------------------
         161.000000    -162.000000      -1.000000       0.000000      -1.000000
 
 ------------------------------------------------------------------------------
                       dipole moment  
 ------------------------------------------------------------------------------
   x    -632.715363     637.760123       5.044760      -1.252418       3.792341
   y     777.011571    -783.175794      -6.164223       1.272756      -4.891466
   z       0.722011      -0.730274      -0.008264       0.003602      -0.004661
 
   | dipole moment | =     6.1894 a.u. =    15.7318 debye 
 
 ------------------------------------------------------------------------------
                     quadrupole moment
 ------------------------------------------------------------------------------
  xx    7670.920509   -7845.584569    -174.664060       2.077170    -172.586890
  yy    5798.771289   -5935.401735    -136.630446      13.598788    -123.031657
  zz       5.712775     -98.533703     -92.820928       0.201114     -92.619814
  xy   -4800.491108    4835.163495      34.672387     -12.158140      22.514247
  xz      -6.785885       6.808950       0.023065      -0.029087      -0.006022
  yz      10.573167     -10.635441      -0.062274       0.028762      -0.033512
 
     1/3  trace=    -129.412787
     anisotropy=      80.052137
 
 ==============================================================================
 


    ------------------------------------------------------------------------
         total  cpu-time :  5 minutes and 44 seconds
         total wall-time :  5 minutes and 44 seconds
    ------------------------------------------------------------------------

   ****  egrad : all done  ****


    2018-02-09 17:59:21.444 

$dipole from egrad
  x     3.79234120964179    y    -4.89146631974461    z    -0.00466132086630    a.u.
   | dipole | =   15.7319313963  debye
/work/bdnguye2/luc_project/7_brluc/ex_geo_opt/save/numforce/KraftWerk/p052
