 operating system is UNIX !

 ridft (missouri) : TURBOMOLE V7.2 ( 21454 ) 4 Oct 2017 at 12:48:15
 Copyright (C) 2017 TURBOMOLE GmbH, Karlsruhe


    2018-02-09 19:07:13.658 



                                  r i d f t

                        DFT program with RI approximation 
                                for coulomb part 




                                                 
                                 References:     
                                                 
          TURBOMOLE:                             
              R. Ahlrichs, M. Baer, M. Haeser, H. Horn, and
              C. Koelmel
              Electronic structure calculations on workstation
              computers: the program system TURBOMOLE
              Chem. Phys. Lett. 162: 165 (1989)
          Density Functional:                              
              O. Treutler and R. Ahlrichs                      
              Efficient Molecular Numerical Integration Schemes
              J. Chem. Phys. 102: 346 (1995)                   
          Parallel Version:                                
              Performance of parallel TURBOMOLE for Density    
              Functional Calculations                          
              M. v. Arnim and R. Ahlrichs                      
              J. Comp. Chem. 19: 1746 (1998)                   
          RI-J Method:                                     
              Auxiliary Basis Sets to approximate Coulomb      
              Potentials                                       
              Chem. Phys. Lett. 240: 283 (1995)                
              K. Eichkorn, O. Treutler, H. Oehm, M. Haeser     
              and R. Ahlrichs                                  
              Chem. Phys. Lett. 242: 652 (1995)                
                                                           
              Auxiliary Basis Sets for Main Row Atoms and their
              Use to approximate Coulomb Potentials            
              K. Eichkorn, F. Weigend, O. Treutler and         
              R. Ahlrichs                                      
              Theo. Chem. Acc. 97: 119 (1997)                   
                                                           
              Accurate Coulomb-fitting basis sets for H to Rn 
              F. Weigend                                        
              Phys. Chem. Chem. Phys. 8: 1057 (2006)            
                                                           
          Multipole accelerated RI-J (MARI-J):             
              Fast evaluation of the Coulomb potential for     
              electron densities using multipole accelerated   
              resolution of identity approximation             
              M. Sierka, A. Hogekamp and R. Ahlrichs           
              J. Chem. Phys. 118: 9136 (2003)                  
          RI-JK Method:                                     
              A fully direct RI-HF algorithm: Implementation,
              optimised auxiliary basis sets, demonstration of
              accuracy and efficiency                         
              F. Weigend                                      
              Phys. Chem. Chem. Phys. 4: 4285 (2002)           
          Two-component HF and DFT with spin-orbit coupling:  
              Self-consistent treatment of spin-orbit         
              interactions with efficient Hartree-Fock and    
              density functional methods                      
              M. K. Armbruster, F. Weigend, C. van Wüllen and 
              W. Klopper                                      
              Phys. Chem. Chem. Phys. 10: 1748 (2008)         
          Relativistic all-electron 2c calculations           
              An efficient implementation of two-component    
              relativistic exact-decoupling methods for large 
              molecules                                       
              D. Peng, N. Middendorf, F. Weigend, M. Reiher   
              J. Chem. Phys. 138, 184105 (2013)               
                                         




              +--------------------------------------------------+
              |      general information about current run       |
              +--------------------------------------------------+

 
 PBE0 hybrid functional
 exchange:    3/4 (LDA+PBE) + 1/4 HF
 correlation: LDA (PW) + PBE
 A Hybrid-DFT calculation using the RI-J approximation will be carried out.
 Allocatable memory for RI due to $ricore (MB):                  5000


              +--------------------------------------------------+
              | Atomic coordinate, charge and isotop information |
              +--------------------------------------------------+

                    atomic coordinates            atom    charge  isotop
        -12.81604966    6.80212618    0.00437541    o      8.000     0
        -10.86529784    5.50820696    0.00327616    c      6.000     0
         -8.33158310    6.65900821    0.00471300    c      6.000     0
         -6.09569521    5.19145880    0.00763599    c      6.000     0
         -6.19304091    2.52784686   -0.00797464    c      6.000     0
         -8.59903338    1.36773963   -0.00759334    c      6.000     0
        -10.79884955    2.77175996   -0.00720334    c      6.000     0
         -3.01930400    6.21623315    0.01068549    s     16.000     0
         -2.03933589    3.03646178    0.00189069    c      6.000     0
         -3.85966134    1.35540609   -0.01017070    n      7.000     0
          0.62659527    2.55439693    0.00236463    c      6.000     0
          1.62252107   -0.65347050   -0.01548640    s     16.000     0
          2.36765486    4.31040872    0.00756014    n      7.000     0
          4.78163948    3.37699650    0.00156520    c      6.000     0
          4.84875254    0.44109219   -0.00809580    c      6.000     0
          5.88485303   -0.23074728    1.67758408    h      1.000     0
          5.88666628   -0.22308594   -1.69524048    h      1.000     0
          6.72661444    4.59216763    0.01117757    o      8.000     0
         -8.16347655   10.16871635    0.02220665    br    35.000     0
         -8.67194987   -0.70239915   -0.01906944    h      1.000     0
        -12.64716089    1.84174576   -0.00918144    h      1.000     0
 
       center of nuclear mass  :   -4.07546291    5.04240833    0.00509887
       center of nuclear charge:   -3.93026346    4.82620900    0.00437349

              +--------------------------------------------------+
              |               basis set information              |
              +--------------------------------------------------+

              we will work with the 1s 3p 5d 7f 9g ... basis set
              ...i.e. with spherical basis functions...

   type   atoms  prim   cont   basis
   ---------------------------------------------------------------------------
    o        2     24     14   def2-SV(P)   [3s2p1d|7s4p1d]
    c       10     24     14   def2-SV(P)   [3s2p1d|7s4p1d]
    s        2     36     18   def2-SV(P)   [4s3p1d|10s7p1d]
    n        2     24     14   def2-SV(P)   [3s2p1d|7s4p1d]
    h        4      4      2   def2-SV(P)   [2s|4s]
    br       1     74     32   def2-SV(P)   [5s4p3d|14s10p6d]
   ---------------------------------------------------------------------------
   total:   21    498    272
   ---------------------------------------------------------------------------

   total number of primitive shells          :   88
   total number of contracted shells         :  120
   total number of cartesian basis functions :  291
   total number of SCF-basis functions       :  272


 integral neglect threshold       :  0.11E-10
 integral storage threshold THIZE :  0.10E-04
 integral storage threshold THIME :         5

 RI-J AUXILIARY BASIS SET information:

              we will work with the 1s 3p 5d 7f 9g ... basis set
              ...i.e. with spherical basis functions...

   type   atoms  prim   cont   basis
   ---------------------------------------------------------------------------
    o        2     70     49   def2-SV(P)   [6s4p3d1f1g|12s5p4d2f1g]
    c       10     70     49   def2-SV(P)   [6s4p3d1f1g|12s5p4d2f1g]
    s        2     77     51   def2-SV(P)   [8s4p3d1f1g|14s5p5d2f1g]
    n        2     70     49   def2-SV(P)   [6s4p3d1f1g|12s5p4d2f1g]
    h        4     16     11   def2-SV(P)   [3s1p1d|5s2p1d]
    br       1     89     58   def2-SV(P)   [8s4p3d2f1g|19s5p5d3f1g]
   ---------------------------------------------------------------------------
   total:   21   1287    890
   ---------------------------------------------------------------------------

   total number of primitive shells          :  140
   total number of contracted shells         :  282
   total number of cartesian basis functions : 1101
   total number of SCF-basis functions       :  890


 symmetry group of the molecule :   c1 

 the group has the following generators :
   c1(z)

    1 symmetry operations found

 there are 1 real representations :   a   

 maximum number of shells which are related by symmetry :  1


    mo occupation :
   irrep   mo's   occupied
    a      272       81
 
 number of basis functions   :                    272
 number of occupied orbitals :                     81
 
  
           ------------------
           density functional
           ------------------
 PBE0 hybrid functional
 exchange:    3/4 (LDA+PBE) + 1/4 HF
 correlation: LDA (PW) + PBE

 iterations will be done with small grid
  
 spherical integration : Lebedev's spherical grid
 spherical gridsize    :                     5
    i.e. gridpoints    :                   590
 value for diffuse not defined
 radial integration    : Chebyshev 2nd kind (scaling 3)
 radial gridsize       :                     8
 integration cells     :                    21
 partition function    : becke
 partition sharpness   :                     3
  

 biggest AO integral is expected to be    21.668154127
  
           ------------------------
               RI-J - INFORMATION
           ------------------------
 Contributions to RI integral batches: 
  neglected integral batches:                  2258
  direct contribution:                            0
  memory contribution:                  5002
 Memory core needed for (P|Q) and Cholesky      7 MByte
 Memory core minimum needed except of (P|Q)     1 MByte
 Total minimum memory core needed (sum)         7 MByte
  
 ****************************************
 Memory allocated for RI-J   249 MByte
 ****************************************
                                            

          ------------------------
          nuclear repulsion energy  :   1710.83136721    
          ------------------------


         -----------------
         -S,T+V- integrals
         -----------------

 1e-integrals will be neglected if expon. factor < 0.114844E-11
 
   Difference densities algorithm switched on.
   The maximal number of linear combinations of
   difference densities is                    20 .

 DIIS switched on: error vector is FDS-SDF
 Max. Iterations for DIIS is     :   4
 DIIS matrix (see manual) 
    Scaling factor of diagonals  :  1.200
    threshold for scaling factor :  0.000

 scf convergence criterion : increment of total energy < .1000000D-06
                  and increment of one-electron energy < .1000000D-03

  MOs are in ASCII format !


 automatic virtual orbital shift switched on 
      shift if e(lumo)-e(homo) < 0.10000000    


 reading orbital data $scfmo  from file mos
 orbital characterization : scfconv=7

 dump of DSCF restart information has been disabled !


 Starting SCF iterations

          Overall gridpoints after grid construction =        122129

 ITERATION  ENERGY          1e-ENERGY        2e-ENERGY     NORM[dD(SAO)]  TOL
   1  -4011.7260836077    -8982.5068647     3259.9494139    0.000D+00 0.115D-10
                            Exc = -172.725032663     Coul =  3488.33317266    
                            exK = -55.6587260824    
                              N = 162.00000416    
                            current damping = 0.700
 
          max. resid. norm for Fia-block=  4.814D-03 for orbital      1a         
          max. resid. fock norm         =  1.118D-02 for orbital    199a         

 ITERATION  ENERGY          1e-ENERGY        2e-ENERGY     NORM[dD(SAO)]  TOL
   2  -4011.7261583330    -8982.5169981     3259.9594726    0.335D-01 0.726D-11
                            Exc = -172.725649491      Eck =  3432.68512205    
                              N = 162.00000422    
                            current damping = 0.650
 
          Norm of current diis error: 0.92517E-02
          max. resid. norm for Fia-block=  1.982D-03 for orbital      1a         
          max. resid. fock norm         =  3.889D-03 for orbital    188a         

 ITERATION  ENERGY          1e-ENERGY        2e-ENERGY     NORM[dD(SAO)]  TOL
   3  -4011.7261720005    -8982.5140402     3259.9565010    0.692D-02 0.559D-11
                            Exc = -172.725005946      Eck =  3432.68150695    
                              N = 162.00000422    
                            current damping = 0.600
 
          Norm of current diis error: 0.60848E-02
          max. resid. norm for Fia-block=  7.810D-04 for orbital      1a         
          max. resid. fock norm         =  1.532D-03 for orbital    188a         

 ITERATION  ENERGY          1e-ENERGY        2e-ENERGY     NORM[dD(SAO)]  TOL
   4  -4011.7261781878    -8982.5139646     3259.9564192    0.212D-02 0.518D-11
                            Exc = -172.725313492      Eck =  3432.68173264    
                              N = 162.00000426    
                            current damping = 0.450
 
          Norm of current diis error: 0.17291E-02
          max. resid. norm for Fia-block=  2.930D-04 for orbital      1a         
          max. resid. fock norm         =  5.694D-04 for orbital    188a         

 ITERATION  ENERGY          1e-ENERGY        2e-ENERGY     NORM[dD(SAO)]  TOL
   5  -4011.7261789018    -8982.5156758     3259.9581297    0.895D-03 0.489D-11
                            Exc = -172.725314592      Eck =  3432.68344432    
                              N = 162.00000426    
                            current damping = 0.500
 
          Norm of current diis error: 0.64655E-03
          max. resid. norm for Fia-block=  9.092D-05 for orbital      1a         
          max. resid. fock norm         =  1.833D-04 for orbital    188a         
          mo-orthogonalization: Cholesky decomposition

 ITERATION  ENERGY          1e-ENERGY        2e-ENERGY     NORM[dD(SAO)]  TOL
   6  -4011.7261792218    -8982.5148540     3259.9573076    0.417D-03 0.473D-11
                            Exc = -172.725273779      Eck =  3432.68258137    
                              N = 162.00000428    
                            current damping = 0.550
 
          Norm of current diis error: 0.32350E-03
          max. resid. norm for Fia-block=  3.085D-05 for orbital     80a         
          max. resid. fock norm         =  6.166D-05 for orbital    188a         

 ENERGY CONVERGED !

          Overall gridpoints after grid construction =        372379

 ITERATION  ENERGY          1e-ENERGY        2e-ENERGY     NORM[dD(SAO)]  TOL
   7  -4011.7261754731    -8982.5147134     3259.9571707    0.167D-03 0.463D-11
                            Exc = -172.725290912      Eck =  3432.68246158    
                              N = 161.99999769    
                            current damping = 0.400
 
          Norm of current diis error: 0.11900E-03
          max. resid. norm for Fia-block=  1.107D-05 for orbital     81a         
          max. resid. fock norm         =  2.378D-05 for orbital    188a         

 End of SCF iterations

   convergence criteria satisfied after     7 iterations


                  ------------------------------------------ 
                 |  total energy      =  -4011.72617547312  |
                  ------------------------------------------ 
                 :  kinetic energy    =   4002.29387291402  :
                 :  potential energy  =  -8014.02004838714  :
                 :  virial theorem    =      1.99764881696  :
                 :  wavefunction norm =      1.00000000000  :
                  .......................................... 


 <geterg> : there is no data group $energy 


 orbitals $scfmo  will be written to file mos

    irrep                 77a         78a         79a         80a         81a   
 eigenvalues H         -0.16886    -0.16279    -0.12913    -0.11988    -0.07406
            eV          -4.5951     -4.4297     -3.5140     -3.2620     -2.0154
 occupation              2.0000      2.0000      2.0000      2.0000      2.0000 

    irrep                 82a         83a         84a         85a         86a   
 eigenvalues H          0.01758     0.10868     0.11891     0.12872     0.13603
            eV           0.4783      2.9574      3.2357      3.5027      3.7015
 
 
 
 
 ==============================================================================
                           electrostatic moments
 ==============================================================================

 reference point for electrostatic moments:    0.00000   0.00000   0.00000

 
              nuc           elec       ->  total
 ------------------------------------------------------------------------------
                          charge      
 ------------------------------------------------------------------------------
         161.000000    -162.000000      -1.000000
 
 ------------------------------------------------------------------------------
                       dipole moment  
 ------------------------------------------------------------------------------
   x    -632.772416     637.826858       5.054441
   y     777.019649    -783.155711      -6.136062
   z       0.704132      -0.711691      -0.007559
 
   | dipole moment | =     7.9498 a.u. =    20.2063 debye 
 
 ------------------------------------------------------------------------------
                     quadrupole moment
 ------------------------------------------------------------------------------
  xx    7671.201968   -7845.678946    -174.476978
  yy    5799.482410   -5936.055023    -136.572613
  zz       5.715827     -98.531452     -92.815625
  xy   -4801.798259    4836.649718      34.851459
  xz      -6.314169       6.310112      -0.004057
  yz      10.208410     -10.274336      -0.065925
 
     1/3  trace=    -134.621739
     anisotropy=      93.026240
 
 ==============================================================================
 


    ------------------------------------------------------------------------
         total  cpu-time :  1 minutes and  0 seconds
         total wall-time :  1 minutes and  0 seconds
    ------------------------------------------------------------------------

   ****  ridft : all done  ****


    2018-02-09 19:08:13.265 


 egrad (missouri) : TURBOMOLE V7.2 ( 21454 ) 4 Oct 2017 at 12:24:43
 Copyright (C) 2017 TURBOMOLE GmbH, Karlsruhe


    2018-02-09 19:08:13.276 




                               e g r a d

                             TURBOMOLE GmbH


             integral direct evaluation of excited state
                     and polarizability gradients
                 and first-order nonadiabatic couplings



          references (see also programs escf, dscf and ridft) 

          review 
          F. Furche and D. Rappoport,  
          "Density functional methods for excited states: 
          equilibrium structure and electronic spectra",
          ch. III of "Computational Photochemistry", ed. by 
          M. Olivucci, vol. 16 of "Theoretical and Computational 
          Chemistry", Elsevier, Amsterdam, 2005.

          nonorthonormal Krylov space methods 
          F. Furche, B. T. Krull, B. D. Nguyen, J. Kwon, 
          J. Chem. Phys. 144 (2016), 174105.

          RI-J method 
          D. Rappoport and F. Furche, 
          J. Chem. Phys. 122 (2005), 064105.

          Lagrangian method, implementation, benchmarks 
          F. Furche and R. Ahlrichs,
          J. Chem. Phys. 117 (2002), 7433;
          J. Chem. Phys. 121 (2004), 12772 (E).

          Polarizability derivatives, Raman intensities 
          D. Rappoport and F. Furche, 
          J. Chem. Phys. 126 (2007), 201104.

          First-order nonadiabatic couplings 
          R. Send and F. Furche, 
          J. Chem. Phys. 132 (2010), 044107.
                                     




              +--------------------------------------------------+
              | Atomic coordinate, charge and isotop information |
              +--------------------------------------------------+

                    atomic coordinates            atom    charge  isotop
        -12.81604966    6.80212618    0.00437541    o      8.000     0
        -10.86529784    5.50820696    0.00327616    c      6.000     0
         -8.33158310    6.65900821    0.00471300    c      6.000     0
         -6.09569521    5.19145880    0.00763599    c      6.000     0
         -6.19304091    2.52784686   -0.00797464    c      6.000     0
         -8.59903338    1.36773963   -0.00759334    c      6.000     0
        -10.79884955    2.77175996   -0.00720334    c      6.000     0
         -3.01930400    6.21623315    0.01068549    s     16.000     0
         -2.03933589    3.03646178    0.00189069    c      6.000     0
         -3.85966134    1.35540609   -0.01017070    n      7.000     0
          0.62659527    2.55439693    0.00236463    c      6.000     0
          1.62252107   -0.65347050   -0.01548640    s     16.000     0
          2.36765486    4.31040872    0.00756014    n      7.000     0
          4.78163948    3.37699650    0.00156520    c      6.000     0
          4.84875254    0.44109219   -0.00809580    c      6.000     0
          5.88485303   -0.23074728    1.67758408    h      1.000     0
          5.88666628   -0.22308594   -1.69524048    h      1.000     0
          6.72661444    4.59216763    0.01117757    o      8.000     0
         -8.16347655   10.16871635    0.02220665    br    35.000     0
         -8.67194987   -0.70239915   -0.01906944    h      1.000     0
        -12.64716089    1.84174576   -0.00918144    h      1.000     0
 
       center of nuclear mass  :   -4.07546291    5.04240833    0.00509887
       center of nuclear charge:   -3.93026346    4.82620900    0.00437349

              +--------------------------------------------------+
              |               basis set information              |
              +--------------------------------------------------+

              we will work with the 1s 3p 5d 7f 9g ... basis set
              ...i.e. with spherical basis functions...

   type   atoms  prim   cont   basis
   ---------------------------------------------------------------------------
    o        2     24     14   def2-SV(P)   [3s2p1d|7s4p1d]
    c       10     24     14   def2-SV(P)   [3s2p1d|7s4p1d]
    s        2     36     18   def2-SV(P)   [4s3p1d|10s7p1d]
    n        2     24     14   def2-SV(P)   [3s2p1d|7s4p1d]
    h        4      4      2   def2-SV(P)   [2s|4s]
    br       1     74     32   def2-SV(P)   [5s4p3d|14s10p6d]
   ---------------------------------------------------------------------------
   total:   21    498    272
   ---------------------------------------------------------------------------

   total number of primitive shells          :   88
   total number of contracted shells         :  120
   total number of cartesian basis functions :  291
   total number of SCF-basis functions       :  272


 residuum convergence criterium   :  0.10E-04


 integral neglect threshold       :  0.11E-10
 integral storage threshold THIZE :  0.10E-04
 integral storage threshold THIME :         5

 
             FOUND RI-J FLAG !
 
  
 AUXILIARY BASIS SET information:

              we will work with the 1s 3p 5d 7f 9g ... basis set
              ...i.e. with spherical basis functions...

   type   atoms  prim   cont   basis
   ---------------------------------------------------------------------------
    o        2     70     49   def2-SV(P)   [6s4p3d1f1g|12s5p4d2f1g]
    c       10     70     49   def2-SV(P)   [6s4p3d1f1g|12s5p4d2f1g]
    s        2     77     51   def2-SV(P)   [8s4p3d1f1g|14s5p5d2f1g]
    n        2     70     49   def2-SV(P)   [6s4p3d1f1g|12s5p4d2f1g]
    h        4     16     11   def2-SV(P)   [3s1p1d|5s2p1d]
    br       1     89     58   def2-SV(P)   [8s4p3d2f1g|19s5p5d3f1g]
   ---------------------------------------------------------------------------
   total:   21   1287    890
   ---------------------------------------------------------------------------

   total number of primitive shells          :  140
   total number of contracted shells         :  282
   total number of cartesian basis functions : 1101
   total number of SCF-basis functions       :  890

 RPA SINGLET-EXCITATION-CALCULATION 
 
             FOUND DFT-FLAG !
 

 symmetry group of the molecule :   c1 

 the group has the following generators :
   c1(z)

    1 symmetry operations found

 there are 1 real representations :   a   

 maximum number of shells which are related by symmetry :  1

 IRREP of excited state :   a   
 

 determining totally symmetric integral contributions 
    - equivalent to irreducible tensor elements - 
 which can be formed within each triple of representations :

             representation triple      contributions

              a     a     a               1

    mo occupation :
   irrep   mo's   occupied
    a      272       81
 
 number of basis functions   :                    272
 number of occupied orbitals :                     81
 
  
           ------------------
           density functional
           ------------------
 PBE0 hybrid functional
 exchange:    3/4 (LDA+PBE) + 1/4 HF
 correlation: LDA (PW) + PBE

 iterations will be done with small grid
  
 spherical integration : Lebedev's spherical grid
 spherical gridsize    :                     5
    i.e. gridpoints    :                   590
 value for diffuse not defined
 radial integration    : Chebyshev 2nd kind (scaling 3)
 radial gridsize       :                     8
 integration cells     :                    21
 partition function    : becke
 partition sharpness   :                     3
  
  
           ----------------------
               RI - INFORMATION
           ----------------------

 biggest AO integral is expected to be    21.668154127

 Threshold for integral neglect (rithr2):   0.11E-10
 Threshold for integral neglect (rithr1):   0.11E-10

 Contributions to RI integral batches: 
  neglected integral batches:                  2114
  direct contribution:                            0
  memory contribution:                  5146
 Core memory available (ricore)            5000 MiB
 Core memory needed for (P|Q) and Cholesky 7 MiB
 Core memory used for integrals            250 MiB
  
 ****************************************
 Memory allocated for RIDFT 257 MiB
 ****************************************
                                            
  MOs are in ASCII format !


 reading orbital data $scfmo  from file mos
 orbital characterization : scfconv=7
 preparing numerical integration ....
          Overall gridpoints after grid construction =        122129

 Calculating ground state density on molecular grid

 Integral of ground state density: N =   162.0000042850047    



 number of non-frozen orbitals          :   272
 number of non-frozen occupied orbitals :    81



                        -------------------
                         excitation vector 
                        -------------------


 dimension of super-tensorspace: 2

          IRREP   tensor space dimension   number of roots

           a             15471                   1

 maximum number of Davidson iterations set to   25


 machine precision: 2.22D-16


 logfile sing_a    will be constructed


                       Nonorthonormal Krylov Space Iteration


 total number of roots to be determined:   1


 maximum core memory set to  5000 MB,
 corresponding to     3796 vectors in CAO basis


 maximum number of simultaneously treated vectors (including degeneracy):        2


 Iteration IRREP Converged      Max. Euclidean
                 roots          residual norm

    1       a        0        3.011600384602875D-02
 
    2       a        0        1.531593178568538D-02
 
    3       a        0        5.257542667809835D-03
 
    4       a        0        6.888546064602566D-02
 
    5       a        0        3.037194184241122D-02
 
    6       a        0        1.216626787107905D-02
 
    7       a        0        4.591542243250839D-03
 
    8       a        0        1.837808512883797D-03
 
    9       a        0        9.304763407640503D-04
 
   10       a        0        4.480692562209562D-04
 
   11       a        0        1.571995374966530D-04
 
   12       a        0        7.476225599855322D-05
 
   13       a        0        2.765731976385089D-05
 
   14       a        0        1.316317268802619D-05
 
   15       a        1        5.056086900081826D-06
 

 converged!


 Switching to fine grid

 preparing numerical integration ....
          Overall gridpoints after grid construction =        372379

 Calculating ground state density on molecular grid

 Integral of ground state density: N =   161.9999976949619    



 Iteration IRREP Converged      Max. Euclidean
                 roots          residual norm

   16       a        1        8.455252046498122D-06
 

 converged!

 Eigenpairs written on logfile sing_a   



 IRREP   Vector     Eigenvalue           Euclidean residual norm

  a         1    8.402707703814685D-02    8.455252046498122D-06
 




                    Selection rules for point group c1  


 Subduction with respect to c1  :

    Polar vector representation: a                           

    Axial vector representation: a                           

    Symmetric second rank tensor representation: a                           




                            Ground state


 Total energy:                           -4011.726175473000    

 Charge:

               elec          nuc         total

          -162.000000   161.000000    -1.000000


 Electric dipole moment:

               elec          nuc         total   

    x      637.826858  -632.772416     5.054441    Norm:              7.949760
    y     -783.155711   777.019649    -6.136062
    z       -0.711691     0.704132    -0.007559    Norm / debye:     20.206428


 Electric quadrupole moment:

               elec          nuc         total   

   xx    -7845.678946  7671.201968  -174.476978
   yy    -5936.055023  5799.482410  -136.572613    1/3*trace:      -134.621739
   zz      -98.531452     5.715827   -92.815625
   xy     4836.649718 -4801.798259    34.851459
   xz        6.310112    -6.314169    -0.004057    Anisotropy:       93.026240
   yz      -10.274336    10.208410    -0.065925



 ==============================================================================

                              I R R E P   a   

 ==============================================================================


 Excitation is electric dipole allowed

 Excitation is magnetic dipole allowed

 Excitation is electric quadrupole allowed




                         1 singlet a excitation


 Total energy:                           -4011.642148395962    

 Excitation energy:                      0.8402707703814685E-01

 Excitation energy / eV:                  2.286494082292124    

 Excitation energy / nm:                  542.2460743138193    

 Excitation energy / cm^(-1):             18441.81170174773    


 Oscillator strength:

    velocity representation:             0.3154348467143998    

    length representation:               0.3675705984129034    

    mixed representation:                0.3405004481327529    


 Rotatory strength:

    velocity representation:             0.5095434915204913E-06

    velocity rep. / 10^(-40)erg*cm^3:    0.3291896372068095E-01

    length representation:              -0.6785967333541142E-07

    length rep. / 10^(-40)erg*cm^3:     -0.4384061737222353E-02


 Dominant contributions:

      occ. orbital   energy / eV   virt. orbital     energy / eV   |coeff.|^2*100
       81 a              -2.02          82 a               0.48       91.8
 

 Change of electron number:

            -0.000000


 Electric transition dipole moment (velocity rep.):

    x        2.332081        Norm:                  2.372962
    y       -0.438575
    z       -0.000679        Norm / debye:          6.031514


 Electric transition dipole moment (length rep.):

    x        2.514611        Norm:                  2.561571
    y       -0.488237
    z       -0.000117        Norm / debye:          6.510913


 Magnetic transition dipole moment / i:

    x       -0.000001        Norm:                  0.001113
    y       -0.000004
    z       -0.001113        Norm / Bohr mag.:      0.305163


 Electric quadrupole transition moment:

   xx      -18.880148
   yy       -4.498228        1/3*trace:            -7.755476
   zz        0.111947
   xy       11.360592
   xz        0.000959        Anisotropy:           26.107196
   yz       -0.003164
 

 Excited state no.    1 chosen for optimization


                       ----------------------
                        CPKS right-hand side 
                       ----------------------


          IRREP   tensor space dimension   number of roots

           a             15471                   1

                          ----------------
                           CPKS equations 
                          ----------------


 logfile dipl_a    will be constructed

 Switching to coarse grid

 preparing numerical integration ....
          Overall gridpoints after grid construction =        122129


                       Nonorthonormal Krylov Space Iteration


 total number of roots to be determined:   1


 maximum core memory set to  5000 MB,
 corresponding to     7544 vectors in CAO basis


 maximum number of simultaneously treated vectors (including degeneracy):        1


 Iteration IRREP Converged      Max. Euclidean
                 roots          residual norm

    1       a        0        1.079699982318658D-01
 
    2       a        0        4.833184756177410D-02
 
    3       a        0        2.215533079966283D-02
 
    4       a        0        9.355939406227261D-03
 
    5       a        0        3.516990424811688D-03
 
    6       a        0        1.230077704694479D-03
 
    7       a        0        4.736062197592498D-04
 
    8       a        0        1.626320092129947D-04
 
    9       a        0        8.135508913390636D-05
 
   10       a        0        1.910991563808147D-05
 
   11       a        1        8.073505436449676D-06
 

 converged!


 Switching to fine grid

 preparing numerical integration ....
          Overall gridpoints after grid construction =        372379

 Iteration IRREP Converged      Max. Euclidean
                 roots          residual norm

   12       a        0        1.621722111914930D-05
 

 NOTE: Residual norms are larger than 1.00D-05 due to mgrid option!

 Eigenpairs written on logfile dipl_a   



 IRREP   Vector     Frequency            Euclidean residual norm

  a         1    0.000000000000000D+00    1.621722111914930D-05
 

                          -------------------
                           relaxed densities 
                          -------------------


    ----------------------------------------
     S+T+V CONTRIBUTIONS TO ENERGY GRADIENT 
    ----------------------------------------

 1e-integral 1st. derivatives will be neglected if expon. factor < 0.100000E-10


    -----------------------------------------------
     TWO ELECTRON CONTRIBUTIONS TO ENERGY GRADIENT 
    -----------------------------------------------

 setting up bound for integral derivative estimation

 increment for numerical differentiation : 0.00050000

 biggest AO integral is expected to be    21.668154127
 biggest cartesian 1st derivative AO integral is expected to be    83.347447328

 biggest 1-particle AO density matrix element is expected to be    3.2070761401

 core memory to be involved in 2e-gradient :
   symmetry shell pair data              :         1
   two particle density+dens. estimates  :      8556
   derivative integrals                  :      8498
   derivative integral bound             :     21780
   totally                               :     30276


 setting up bound for integral derivative estimation

 increment for numerical differentiation : 0.00050000

 biggest AO integral is expected to be    21.668154127
 biggest cartesian 1st derivative AO integral is expected to be    83.347447328

 2e-integral 1st. derivatives will be neglected if expon. factor < 0.100000E-06
 outer boundary for 2e-integral derivative neglection is 0.162043E-08

 Integrated ground state density     :   161.9999976949597    


          ------------------------------------------------
           cartesian gradient of the energy (hartree/bohr)
          ------------------------------------------------

  ATOM      1 o           2 c           3 c           4 c           5 c 
dE/dx -0.1485031D-02  0.1966662D-02 -0.3834863D-03  0.7251723D-03  0.2093880D-02
dE/dy  0.2412016D-03  0.1459261D-02 -0.2845070D-02  0.2840229D-02 -0.8816648D-03
dE/dz -0.1634830D-03  0.5671830D-03 -0.6023399D-03  0.7320081D-03 -0.7165198D-03

  ATOM      6 c           7 c           8 s           9 c          10 n 
dE/dx -0.2345391D-02  0.2026753D-02 -0.1330700D-02  0.2620984D-02 -0.2587595D-02
dE/dy  0.6564818D-03 -0.6928186D-03 -0.1413598D-02  0.2354881D-02 -0.1510640D-02
dE/dz  0.6938327D-03 -0.4077482D-03 -0.2267020D-03  0.2447834D-03 -0.1136982D-03

  ATOM     11 c          12 s          13 n          14 c          15 c 
dE/dx -0.2048860D-03  0.5525114D-03 -0.2725732D-02  0.7106503D-02 -0.1820719D-02
dE/dy  0.1313382D-02 -0.1762177D-03 -0.8727139D-03  0.3813892D-02 -0.5084332D-03
dE/dz  0.2397923D-03 -0.1297582D-03  0.1770768D-04 -0.4165858D-03  0.7963925D-04

  ATOM     16 h          17 h          18 o          19 br         20 h 
dE/dx  0.6963322D-03  0.5694100D-03 -0.4989866D-02  0.4533414D-04  0.1348823D-04
dE/dy -0.1043707D-03 -0.1518274D-03 -0.3391957D-02  0.8401412D-03 -0.7220640D-03
dE/dz  0.7075000D-03 -0.6424467D-03  0.1766409D-03  0.7511836D-04 -0.1537151D-03

  ATOM     21 h 
dE/dx -0.5559349D-03
dE/dy -0.2623564D-03
dE/dz  0.3847716D-04
 
 resulting FORCE  (fx,fy,fz) = (-.123D-04,-.143D-04,-.314D-06)
 resulting MOMENT (mx,my,mz) = (0.103D-04,-.986D-05,0.639D-04)


 **********************************************************************
  |maximum component of gradient| : 0.71065025E-02  (atom 14 c )       
   gradient norm                  : 0.13691997E-01
 **********************************************************************

 exx =      -0.009692 eyy =       0.003955 ezz =       0.002290
 eyz =       0.000120 exz =       0.000161 exy =      -0.007356


 <getgrd> : data group $grad  is missing 

   ***  cartesian gradients written onto <gradient>  ***
 
 
 
 ==============================================================================
                           electrostatic moments
 ==============================================================================

 reference point for electrostatic moments:    0.00000   0.00000   0.00000

 
              nuc           gs,e       ->  gs,tot          excit     ->  total
 ------------------------------------------------------------------------------
                          charge      
 ------------------------------------------------------------------------------
         161.000000    -162.000000      -1.000000       0.000000      -1.000000
 
 ------------------------------------------------------------------------------
                       dipole moment  
 ------------------------------------------------------------------------------
   x    -632.772416     637.826858       5.054441      -1.240928       3.813513
   y     777.019649    -783.155711      -6.136062       1.264183      -4.871878
   z       0.704132      -0.711691      -0.007559       0.003583      -0.003976
 
   | dipole moment | =     6.1869 a.u. =    15.7256 debye 
 
 ------------------------------------------------------------------------------
                     quadrupole moment
 ------------------------------------------------------------------------------
  xx    7671.201968   -7845.678946    -174.476978       2.173062    -172.303916
  yy    5799.482410   -5936.055023    -136.572613      13.516690    -123.055923
  zz       5.715827     -98.531452     -92.815625       0.195634     -92.619991
  xy   -4801.798259    4836.649718      34.851459     -12.127279      22.724180
  xz      -6.314169       6.310112      -0.004057      -0.028775      -0.032832
  yz      10.208410     -10.274336      -0.065925       0.026862      -0.039063
 
     1/3  trace=    -129.326610
     anisotropy=      79.998701
 
 ==============================================================================
 


    ------------------------------------------------------------------------
         total  cpu-time :  6 minutes and  5 seconds
         total wall-time :  6 minutes and  5 seconds
    ------------------------------------------------------------------------

   ****  egrad : all done  ****


    2018-02-09 19:14:17.768 

$dipole from egrad
  x     3.81351317386850    y    -4.87187845489973    z    -0.00397558959513    a.u.
   | dipole | =   15.7257253910  debye
/work/bdnguye2/luc_project/7_brluc/ex_geo_opt/save/numforce/KraftWerk/p063
