 operating system is UNIX !

 ridft (missouri) : TURBOMOLE V7.2 ( 21454 ) 4 Oct 2017 at 12:48:15
 Copyright (C) 2017 TURBOMOLE GmbH, Karlsruhe


    2018-02-09 19:14:17.814 



                                  r i d f t

                        DFT program with RI approximation 
                                for coulomb part 




                                                 
                                 References:     
                                                 
          TURBOMOLE:                             
              R. Ahlrichs, M. Baer, M. Haeser, H. Horn, and
              C. Koelmel
              Electronic structure calculations on workstation
              computers: the program system TURBOMOLE
              Chem. Phys. Lett. 162: 165 (1989)
          Density Functional:                              
              O. Treutler and R. Ahlrichs                      
              Efficient Molecular Numerical Integration Schemes
              J. Chem. Phys. 102: 346 (1995)                   
          Parallel Version:                                
              Performance of parallel TURBOMOLE for Density    
              Functional Calculations                          
              M. v. Arnim and R. Ahlrichs                      
              J. Comp. Chem. 19: 1746 (1998)                   
          RI-J Method:                                     
              Auxiliary Basis Sets to approximate Coulomb      
              Potentials                                       
              Chem. Phys. Lett. 240: 283 (1995)                
              K. Eichkorn, O. Treutler, H. Oehm, M. Haeser     
              and R. Ahlrichs                                  
              Chem. Phys. Lett. 242: 652 (1995)                
                                                           
              Auxiliary Basis Sets for Main Row Atoms and their
              Use to approximate Coulomb Potentials            
              K. Eichkorn, F. Weigend, O. Treutler and         
              R. Ahlrichs                                      
              Theo. Chem. Acc. 97: 119 (1997)                   
                                                           
              Accurate Coulomb-fitting basis sets for H to Rn 
              F. Weigend                                        
              Phys. Chem. Chem. Phys. 8: 1057 (2006)            
                                                           
          Multipole accelerated RI-J (MARI-J):             
              Fast evaluation of the Coulomb potential for     
              electron densities using multipole accelerated   
              resolution of identity approximation             
              M. Sierka, A. Hogekamp and R. Ahlrichs           
              J. Chem. Phys. 118: 9136 (2003)                  
          RI-JK Method:                                     
              A fully direct RI-HF algorithm: Implementation,
              optimised auxiliary basis sets, demonstration of
              accuracy and efficiency                         
              F. Weigend                                      
              Phys. Chem. Chem. Phys. 4: 4285 (2002)           
          Two-component HF and DFT with spin-orbit coupling:  
              Self-consistent treatment of spin-orbit         
              interactions with efficient Hartree-Fock and    
              density functional methods                      
              M. K. Armbruster, F. Weigend, C. van Wüllen and 
              W. Klopper                                      
              Phys. Chem. Chem. Phys. 10: 1748 (2008)         
          Relativistic all-electron 2c calculations           
              An efficient implementation of two-component    
              relativistic exact-decoupling methods for large 
              molecules                                       
              D. Peng, N. Middendorf, F. Weigend, M. Reiher   
              J. Chem. Phys. 138, 184105 (2013)               
                                         




              +--------------------------------------------------+
              |      general information about current run       |
              +--------------------------------------------------+

 
 PBE0 hybrid functional
 exchange:    3/4 (LDA+PBE) + 1/4 HF
 correlation: LDA (PW) + PBE
 A Hybrid-DFT calculation using the RI-J approximation will be carried out.
 Allocatable memory for RI due to $ricore (MB):                  5000


              +--------------------------------------------------+
              | Atomic coordinate, charge and isotop information |
              +--------------------------------------------------+

                    atomic coordinates            atom    charge  isotop
        -12.81618629    6.80230924    0.00501765    o      8.000     0
        -10.86506149    5.50827984    0.00214103    c      6.000     0
         -8.33312924    6.65936110    0.00570809    c      6.000     0
         -6.09392834    5.19317115    0.00586784    c      6.000     0
         -6.19559864    2.52651249   -0.00860479    c      6.000     0
         -8.59579767    1.37141713   -0.00794811    c      6.000     0
        -10.80037968    2.76798049   -0.01067748    c      6.000     0
         -3.01653347    6.22016297    0.01342676    s     16.000     0
         -2.03772265    3.03160295   -0.00353332    c      6.000     0
         -3.85983527    1.35685488   -0.00464585    n      7.000     0
          0.63170306    2.55130055   -0.00223239    c      6.000     0
          1.61834617   -0.65625655   -0.00970112    s     16.000     0
          2.37417629    4.31146305    0.00669520    n      7.000     0
          4.77493113    3.37069265    0.00435573    c      6.000     0
          4.85328725    0.44641891   -0.00423971    c      6.000     0
          5.87892904   -0.23756564    1.67556043    h      1.000     0
          5.88653636   -0.22352369   -1.69600429    h      1.000     0
          6.72711163    4.59320501    0.01206070    o      8.000     0
         -8.16274479   10.16706329    0.01997932    br    35.000     0
         -8.67223705   -0.70197229   -0.01642921    h      1.000     0
        -12.64437485    1.84040408   -0.01422097    h      1.000     0
 
       center of nuclear mass  :   -4.07499241    5.04195760    0.00529038
       center of nuclear charge:   -3.92981738    4.82577530    0.00461979

              +--------------------------------------------------+
              |               basis set information              |
              +--------------------------------------------------+

              we will work with the 1s 3p 5d 7f 9g ... basis set
              ...i.e. with spherical basis functions...

   type   atoms  prim   cont   basis
   ---------------------------------------------------------------------------
    o        2     24     14   def2-SV(P)   [3s2p1d|7s4p1d]
    c       10     24     14   def2-SV(P)   [3s2p1d|7s4p1d]
    s        2     36     18   def2-SV(P)   [4s3p1d|10s7p1d]
    n        2     24     14   def2-SV(P)   [3s2p1d|7s4p1d]
    h        4      4      2   def2-SV(P)   [2s|4s]
    br       1     74     32   def2-SV(P)   [5s4p3d|14s10p6d]
   ---------------------------------------------------------------------------
   total:   21    498    272
   ---------------------------------------------------------------------------

   total number of primitive shells          :   88
   total number of contracted shells         :  120
   total number of cartesian basis functions :  291
   total number of SCF-basis functions       :  272


 integral neglect threshold       :  0.11E-10
 integral storage threshold THIZE :  0.10E-04
 integral storage threshold THIME :         5

 RI-J AUXILIARY BASIS SET information:

              we will work with the 1s 3p 5d 7f 9g ... basis set
              ...i.e. with spherical basis functions...

   type   atoms  prim   cont   basis
   ---------------------------------------------------------------------------
    o        2     70     49   def2-SV(P)   [6s4p3d1f1g|12s5p4d2f1g]
    c       10     70     49   def2-SV(P)   [6s4p3d1f1g|12s5p4d2f1g]
    s        2     77     51   def2-SV(P)   [8s4p3d1f1g|14s5p5d2f1g]
    n        2     70     49   def2-SV(P)   [6s4p3d1f1g|12s5p4d2f1g]
    h        4     16     11   def2-SV(P)   [3s1p1d|5s2p1d]
    br       1     89     58   def2-SV(P)   [8s4p3d2f1g|19s5p5d3f1g]
   ---------------------------------------------------------------------------
   total:   21   1287    890
   ---------------------------------------------------------------------------

   total number of primitive shells          :  140
   total number of contracted shells         :  282
   total number of cartesian basis functions : 1101
   total number of SCF-basis functions       :  890


 symmetry group of the molecule :   c1 

 the group has the following generators :
   c1(z)

    1 symmetry operations found

 there are 1 real representations :   a   

 maximum number of shells which are related by symmetry :  1


    mo occupation :
   irrep   mo's   occupied
    a      272       81
 
 number of basis functions   :                    272
 number of occupied orbitals :                     81
 
  
           ------------------
           density functional
           ------------------
 PBE0 hybrid functional
 exchange:    3/4 (LDA+PBE) + 1/4 HF
 correlation: LDA (PW) + PBE

 iterations will be done with small grid
  
 spherical integration : Lebedev's spherical grid
 spherical gridsize    :                     5
    i.e. gridpoints    :                   590
 value for diffuse not defined
 radial integration    : Chebyshev 2nd kind (scaling 3)
 radial gridsize       :                     8
 integration cells     :                    21
 partition function    : becke
 partition sharpness   :                     3
  

 biggest AO integral is expected to be    21.668154127
  
           ------------------------
               RI-J - INFORMATION
           ------------------------
 Contributions to RI integral batches: 
  neglected integral batches:                  2258
  direct contribution:                            0
  memory contribution:                  5002
 Memory core needed for (P|Q) and Cholesky      7 MByte
 Memory core minimum needed except of (P|Q)     1 MByte
 Total minimum memory core needed (sum)         7 MByte
  
 ****************************************
 Memory allocated for RI-J   249 MByte
 ****************************************
                                            

          ------------------------
          nuclear repulsion energy  :   1710.70135070    
          ------------------------


         -----------------
         -S,T+V- integrals
         -----------------

 1e-integrals will be neglected if expon. factor < 0.114844E-11
 
   Difference densities algorithm switched on.
   The maximal number of linear combinations of
   difference densities is                    20 .

 DIIS switched on: error vector is FDS-SDF
 Max. Iterations for DIIS is     :   4
 DIIS matrix (see manual) 
    Scaling factor of diagonals  :  1.200
    threshold for scaling factor :  0.000

 scf convergence criterion : increment of total energy < .1000000D-06
                  and increment of one-electron energy < .1000000D-03

  MOs are in ASCII format !


 automatic virtual orbital shift switched on 
      shift if e(lumo)-e(homo) < 0.10000000    


 reading orbital data $scfmo  from file mos
 orbital characterization : scfconv=7

 dump of DSCF restart information has been disabled !


 Starting SCF iterations

          Overall gridpoints after grid construction =        122129

 ITERATION  ENERGY          1e-ENERGY        2e-ENERGY     NORM[dD(SAO)]  TOL
   1  -4011.7257970580    -8982.2546341     3259.8274864    0.000D+00 0.115D-10
                            Exc = -172.724069587     Coul =  3488.20981582    
                            exK = -55.6582598828    
                              N = 162.00000479    
                            current damping = 0.700
 
          max. resid. norm for Fia-block=  4.831D-03 for orbital      1a         
          max. resid. fock norm         =  1.201D-02 for orbital    199a         

 ITERATION  ENERGY          1e-ENERGY        2e-ENERGY     NORM[dD(SAO)]  TOL
   2  -4011.7258554373    -8982.2522252     3259.8250191    0.329D-01 0.726D-11
                            Exc = -172.723083519      Eck =  3432.54810263    
                              N = 162.00000474    
                            current damping = 0.650
 
          Norm of current diis error: 0.84767E-02
          max. resid. norm for Fia-block=  1.990D-03 for orbital      1a         
          max. resid. fock norm         =  4.607D-03 for orbital      1a         

 ITERATION  ENERGY          1e-ENERGY        2e-ENERGY     NORM[dD(SAO)]  TOL
   3  -4011.7258665513    -8982.2437989     3259.8165817    0.563D-02 0.557D-11
                            Exc = -172.723674697      Eck =  3432.54025639    
                              N = 162.00000470    
                            current damping = 0.500
 
          Norm of current diis error: 0.52316E-02
          max. resid. norm for Fia-block=  7.838D-04 for orbital      1a         
          max. resid. fock norm         =  1.815D-03 for orbital      1a         

 ITERATION  ENERGY          1e-ENERGY        2e-ENERGY     NORM[dD(SAO)]  TOL
   4  -4011.7258707730    -8982.2528083     3259.8255868    0.214D-02 0.518D-11
                            Exc = -172.723151391      Eck =  3432.54873817    
                              N = 162.00000471    
                            current damping = 0.550
 
          Norm of current diis error: 0.21542E-02
          max. resid. norm for Fia-block=  2.613D-04 for orbital      1a         
          max. resid. fock norm         =  6.050D-04 for orbital      1a         

 ITERATION  ENERGY          1e-ENERGY        2e-ENERGY     NORM[dD(SAO)]  TOL
   5  -4011.7258714883    -8982.2477085     3259.8204863    0.127D-02 0.497D-11
                            Exc = -172.723322933      Eck =  3432.54380923    
                              N = 162.00000469    
                            current damping = 0.600
 
          Norm of current diis error: 0.96724E-03
          max. resid. norm for Fia-block=  9.273D-05 for orbital      1a         
          max. resid. fock norm         =  2.147D-04 for orbital      1a         
          mo-orthogonalization: Cholesky decomposition

 ITERATION  ENERGY          1e-ENERGY        2e-ENERGY     NORM[dD(SAO)]  TOL
   6  -4011.7258718851    -8982.2487599     3259.8215373    0.493D-03 0.483D-11
                            Exc = -172.723259762      Eck =  3432.54479705    
                              N = 162.00000471    
                            current damping = 0.650
 
          Norm of current diis error: 0.40313E-03
          max. resid. norm for Fia-block=  3.476D-05 for orbital      1a         
          max. resid. fock norm         =  8.051D-05 for orbital      1a         

 ENERGY CONVERGED !

          Overall gridpoints after grid construction =        372351

 ITERATION  ENERGY          1e-ENERGY        2e-ENERGY     NORM[dD(SAO)]  TOL
   7  -4011.7258688686    -8982.2487682     3259.8215486    0.163D-03 0.475D-11
                            Exc = -172.723273271      Eck =  3432.54482187    
                              N = 161.99999787    
                            current damping = 0.500
 
          Norm of current diis error: 0.15760E-03
          max. resid. norm for Fia-block=  1.370D-05 for orbital      1a         
          max. resid. fock norm         =  3.171D-05 for orbital      1a         

 End of SCF iterations

   convergence criteria satisfied after     7 iterations


                  ------------------------------------------ 
                 |  total energy      =  -4011.72586886860  |
                  ------------------------------------------ 
                 :  kinetic energy    =   4002.28161074216  :
                 :  potential energy  =  -8014.00747961076  :
                 :  virial theorem    =      1.99764583662  :
                 :  wavefunction norm =      1.00000000000  :
                  .......................................... 


 <geterg> : there is no data group $energy 


 orbitals $scfmo  will be written to file mos

    irrep                 77a         78a         79a         80a         81a   
 eigenvalues H         -0.16886    -0.16305    -0.12894    -0.11993    -0.07430
            eV          -4.5948     -4.4370     -3.5087     -3.2634     -2.0219
 occupation              2.0000      2.0000      2.0000      2.0000      2.0000 

    irrep                 82a         83a         84a         85a         86a   
 eigenvalues H          0.01703     0.10857     0.11853     0.12702     0.13569
            eV           0.4633      2.9544      3.2255      3.4565      3.6923
 
 
 
 
 ==============================================================================
                           electrostatic moments
 ==============================================================================

 reference point for electrostatic moments:    0.00000   0.00000   0.00000

 
              nuc           elec       ->  total
 ------------------------------------------------------------------------------
                          charge      
 ------------------------------------------------------------------------------
         161.000000    -162.000000      -1.000000
 
 ------------------------------------------------------------------------------
                       dipole moment  
 ------------------------------------------------------------------------------
   x    -632.700599     637.729395       5.028797
   y     776.949824    -783.107789      -6.157966
   z       0.743786      -0.751952      -0.008166
 
   | dipole moment | =     7.9504 a.u. =    20.2080 debye 
 
 ------------------------------------------------------------------------------
                     quadrupole moment
 ------------------------------------------------------------------------------
  xx    7670.398044   -7844.975218    -174.577175
  yy    5798.866778   -5935.508247    -136.641469
  zz       5.706860     -98.525136     -92.818276
  xy   -4800.820267    4835.469507      34.649240
  xz      -5.228370       5.231746       0.003376
  yz       9.475074      -9.541591      -0.066517
 
     1/3  trace=    -134.678973
     anisotropy=      92.864291
 
 ==============================================================================
 


    ------------------------------------------------------------------------
         total  cpu-time :  1 minutes and  0 seconds
         total wall-time :  1 minutes and  0 seconds
    ------------------------------------------------------------------------

   ****  ridft : all done  ****


    2018-02-09 19:15:17.678 


 egrad (missouri) : TURBOMOLE V7.2 ( 21454 ) 4 Oct 2017 at 12:24:43
 Copyright (C) 2017 TURBOMOLE GmbH, Karlsruhe


    2018-02-09 19:15:17.691 




                               e g r a d

                             TURBOMOLE GmbH


             integral direct evaluation of excited state
                     and polarizability gradients
                 and first-order nonadiabatic couplings



          references (see also programs escf, dscf and ridft) 

          review 
          F. Furche and D. Rappoport,  
          "Density functional methods for excited states: 
          equilibrium structure and electronic spectra",
          ch. III of "Computational Photochemistry", ed. by 
          M. Olivucci, vol. 16 of "Theoretical and Computational 
          Chemistry", Elsevier, Amsterdam, 2005.

          nonorthonormal Krylov space methods 
          F. Furche, B. T. Krull, B. D. Nguyen, J. Kwon, 
          J. Chem. Phys. 144 (2016), 174105.

          RI-J method 
          D. Rappoport and F. Furche, 
          J. Chem. Phys. 122 (2005), 064105.

          Lagrangian method, implementation, benchmarks 
          F. Furche and R. Ahlrichs,
          J. Chem. Phys. 117 (2002), 7433;
          J. Chem. Phys. 121 (2004), 12772 (E).

          Polarizability derivatives, Raman intensities 
          D. Rappoport and F. Furche, 
          J. Chem. Phys. 126 (2007), 201104.

          First-order nonadiabatic couplings 
          R. Send and F. Furche, 
          J. Chem. Phys. 132 (2010), 044107.
                                     




              +--------------------------------------------------+
              | Atomic coordinate, charge and isotop information |
              +--------------------------------------------------+

                    atomic coordinates            atom    charge  isotop
        -12.81618629    6.80230924    0.00501765    o      8.000     0
        -10.86506149    5.50827984    0.00214103    c      6.000     0
         -8.33312924    6.65936110    0.00570809    c      6.000     0
         -6.09392834    5.19317115    0.00586784    c      6.000     0
         -6.19559864    2.52651249   -0.00860479    c      6.000     0
         -8.59579767    1.37141713   -0.00794811    c      6.000     0
        -10.80037968    2.76798049   -0.01067748    c      6.000     0
         -3.01653347    6.22016297    0.01342676    s     16.000     0
         -2.03772265    3.03160295   -0.00353332    c      6.000     0
         -3.85983527    1.35685488   -0.00464585    n      7.000     0
          0.63170306    2.55130055   -0.00223239    c      6.000     0
          1.61834617   -0.65625655   -0.00970112    s     16.000     0
          2.37417629    4.31146305    0.00669520    n      7.000     0
          4.77493113    3.37069265    0.00435573    c      6.000     0
          4.85328725    0.44641891   -0.00423971    c      6.000     0
          5.87892904   -0.23756564    1.67556043    h      1.000     0
          5.88653636   -0.22352369   -1.69600429    h      1.000     0
          6.72711163    4.59320501    0.01206070    o      8.000     0
         -8.16274479   10.16706329    0.01997932    br    35.000     0
         -8.67223705   -0.70197229   -0.01642921    h      1.000     0
        -12.64437485    1.84040408   -0.01422097    h      1.000     0
 
       center of nuclear mass  :   -4.07499241    5.04195760    0.00529038
       center of nuclear charge:   -3.92981738    4.82577530    0.00461979

              +--------------------------------------------------+
              |               basis set information              |
              +--------------------------------------------------+

              we will work with the 1s 3p 5d 7f 9g ... basis set
              ...i.e. with spherical basis functions...

   type   atoms  prim   cont   basis
   ---------------------------------------------------------------------------
    o        2     24     14   def2-SV(P)   [3s2p1d|7s4p1d]
    c       10     24     14   def2-SV(P)   [3s2p1d|7s4p1d]
    s        2     36     18   def2-SV(P)   [4s3p1d|10s7p1d]
    n        2     24     14   def2-SV(P)   [3s2p1d|7s4p1d]
    h        4      4      2   def2-SV(P)   [2s|4s]
    br       1     74     32   def2-SV(P)   [5s4p3d|14s10p6d]
   ---------------------------------------------------------------------------
   total:   21    498    272
   ---------------------------------------------------------------------------

   total number of primitive shells          :   88
   total number of contracted shells         :  120
   total number of cartesian basis functions :  291
   total number of SCF-basis functions       :  272


 residuum convergence criterium   :  0.10E-04


 integral neglect threshold       :  0.11E-10
 integral storage threshold THIZE :  0.10E-04
 integral storage threshold THIME :         5

 
             FOUND RI-J FLAG !
 
  
 AUXILIARY BASIS SET information:

              we will work with the 1s 3p 5d 7f 9g ... basis set
              ...i.e. with spherical basis functions...

   type   atoms  prim   cont   basis
   ---------------------------------------------------------------------------
    o        2     70     49   def2-SV(P)   [6s4p3d1f1g|12s5p4d2f1g]
    c       10     70     49   def2-SV(P)   [6s4p3d1f1g|12s5p4d2f1g]
    s        2     77     51   def2-SV(P)   [8s4p3d1f1g|14s5p5d2f1g]
    n        2     70     49   def2-SV(P)   [6s4p3d1f1g|12s5p4d2f1g]
    h        4     16     11   def2-SV(P)   [3s1p1d|5s2p1d]
    br       1     89     58   def2-SV(P)   [8s4p3d2f1g|19s5p5d3f1g]
   ---------------------------------------------------------------------------
   total:   21   1287    890
   ---------------------------------------------------------------------------

   total number of primitive shells          :  140
   total number of contracted shells         :  282
   total number of cartesian basis functions : 1101
   total number of SCF-basis functions       :  890

 RPA SINGLET-EXCITATION-CALCULATION 
 
             FOUND DFT-FLAG !
 

 symmetry group of the molecule :   c1 

 the group has the following generators :
   c1(z)

    1 symmetry operations found

 there are 1 real representations :   a   

 maximum number of shells which are related by symmetry :  1

 IRREP of excited state :   a   
 

 determining totally symmetric integral contributions 
    - equivalent to irreducible tensor elements - 
 which can be formed within each triple of representations :

             representation triple      contributions

              a     a     a               1

    mo occupation :
   irrep   mo's   occupied
    a      272       81
 
 number of basis functions   :                    272
 number of occupied orbitals :                     81
 
  
           ------------------
           density functional
           ------------------
 PBE0 hybrid functional
 exchange:    3/4 (LDA+PBE) + 1/4 HF
 correlation: LDA (PW) + PBE

 iterations will be done with small grid
  
 spherical integration : Lebedev's spherical grid
 spherical gridsize    :                     5
    i.e. gridpoints    :                   590
 value for diffuse not defined
 radial integration    : Chebyshev 2nd kind (scaling 3)
 radial gridsize       :                     8
 integration cells     :                    21
 partition function    : becke
 partition sharpness   :                     3
  
  
           ----------------------
               RI - INFORMATION
           ----------------------

 biggest AO integral is expected to be    21.668154127

 Threshold for integral neglect (rithr2):   0.11E-10
 Threshold for integral neglect (rithr1):   0.11E-10

 Contributions to RI integral batches: 
  neglected integral batches:                  2112
  direct contribution:                            0
  memory contribution:                  5148
 Core memory available (ricore)            5000 MiB
 Core memory needed for (P|Q) and Cholesky 7 MiB
 Core memory used for integrals            251 MiB
  
 ****************************************
 Memory allocated for RIDFT 257 MiB
 ****************************************
                                            
  MOs are in ASCII format !


 reading orbital data $scfmo  from file mos
 orbital characterization : scfconv=7
 preparing numerical integration ....
          Overall gridpoints after grid construction =        122129

 Calculating ground state density on molecular grid

 Integral of ground state density: N =   162.0000047098203    



 number of non-frozen orbitals          :   272
 number of non-frozen occupied orbitals :    81



                        -------------------
                         excitation vector 
                        -------------------


 dimension of super-tensorspace: 2

          IRREP   tensor space dimension   number of roots

           a             15471                   1

 maximum number of Davidson iterations set to   25


 machine precision: 2.22D-16


 logfile sing_a    will be constructed


                       Nonorthonormal Krylov Space Iteration


 total number of roots to be determined:   1


 maximum core memory set to  5000 MB,
 corresponding to     3796 vectors in CAO basis


 maximum number of simultaneously treated vectors (including degeneracy):        2


 Iteration IRREP Converged      Max. Euclidean
                 roots          residual norm

    1       a        0        3.008466554735359D-02
 
    2       a        0        1.961731227310031D-02
 
    3       a        0        9.429443311353282D-02
 
    4       a        0        2.383666771845977D-02
 
    5       a        0        1.159791050055878D-02
 
    6       a        0        4.345700568436862D-03
 
    7       a        0        2.043990090953922D-03
 
    8       a        0        9.558636130163603D-04
 
    9       a        0        4.008281728214225D-04
 
   10       a        0        1.779658005283818D-04
 
   11       a        0        7.743715404282610D-05
 
   12       a        0        3.298015302860927D-05
 
   13       a        0        1.012492493709647D-05
 
   14       a        1        4.535874440896744D-06
 

 converged!


 Switching to fine grid

 preparing numerical integration ....
          Overall gridpoints after grid construction =        372351

 Calculating ground state density on molecular grid

 Integral of ground state density: N =   161.9999978654288    



 Iteration IRREP Converged      Max. Euclidean
                 roots          residual norm

   15       a        1        7.866727201778790D-06
 

 converged!

 Eigenpairs written on logfile sing_a   



 IRREP   Vector     Eigenvalue           Euclidean residual norm

  a         1    8.371857318019178D-02    7.866727201778790D-06
 




                    Selection rules for point group c1  


 Subduction with respect to c1  :

    Polar vector representation: a                           

    Axial vector representation: a                           

    Symmetric second rank tensor representation: a                           




                            Ground state


 Total energy:                           -4011.725868869000    

 Charge:

               elec          nuc         total

          -162.000000   161.000000    -1.000000


 Electric dipole moment:

               elec          nuc         total   

    x      637.729395  -632.700599     5.028797    Norm:              7.950434
    y     -783.107789   776.949824    -6.157966
    z       -0.751952     0.743786    -0.008166    Norm / debye:     20.208141


 Electric quadrupole moment:

               elec          nuc         total   

   xx    -7844.975218  7670.398044  -174.577175
   yy    -5935.508247  5798.866778  -136.641469    1/3*trace:      -134.678973
   zz      -98.525136     5.706860   -92.818276
   xy     4835.469507 -4800.820267    34.649240
   xz        5.231746    -5.228370     0.003376    Anisotropy:       92.864291
   yz       -9.541591     9.475074    -0.066517



 ==============================================================================

                              I R R E P   a   

 ==============================================================================


 Excitation is electric dipole allowed

 Excitation is magnetic dipole allowed

 Excitation is electric quadrupole allowed




                         1 singlet a excitation


 Total energy:                           -4011.642150295820    

 Excitation energy:                      0.8371857318019178E-01

 Excitation energy / eV:                  2.278099261593336    

 Excitation energy / nm:                  544.2442570292217    

 Excitation energy / cm^(-1):             18374.10293145352    


 Oscillator strength:

    velocity representation:             0.3114389245351810    

    length representation:               0.3631195929857616    

    mixed representation:                0.3362822191795741    


 Rotatory strength:

    velocity representation:            -0.1390112535606167E-05

    velocity rep. / 10^(-40)erg*cm^3:   -0.8980796514686311E-01

    length representation:              -0.2287826937902738E-05

    length rep. / 10^(-40)erg*cm^3:     -0.1478046392924795    


 Dominant contributions:

      occ. orbital   energy / eV   virt. orbital     energy / eV   |coeff.|^2*100
       81 a              -2.02          82 a               0.46       91.6
 

 Change of electron number:

             0.000000


 Electric transition dipole moment (velocity rep.):

    x       -2.321113        Norm:                  2.362224
    y        0.438790
    z        0.000712        Norm / debye:          6.004221


 Electric transition dipole moment (length rep.):

    x       -2.503509        Norm:                  2.550701
    y        0.488385
    z       -0.000017        Norm / debye:          6.483284


 Magnetic transition dipole moment / i:

    x        0.000002        Norm:                  0.001100
    y        0.000005
    z        0.001100        Norm / Bohr mag.:      0.301515


 Electric quadrupole transition moment:

   xx       18.793436
   yy        4.492152        1/3*trace:             7.724893
   zz       -0.110908
   xy      -11.324550
   xz        0.003756        Anisotropy:           26.005401
   yz        0.001725
 

 Excited state no.    1 chosen for optimization


                       ----------------------
                        CPKS right-hand side 
                       ----------------------


          IRREP   tensor space dimension   number of roots

           a             15471                   1

                          ----------------
                           CPKS equations 
                          ----------------


 logfile dipl_a    will be constructed

 Switching to coarse grid

 preparing numerical integration ....
          Overall gridpoints after grid construction =        122129


                       Nonorthonormal Krylov Space Iteration


 total number of roots to be determined:   1


 maximum core memory set to  5000 MB,
 corresponding to     7544 vectors in CAO basis


 maximum number of simultaneously treated vectors (including degeneracy):        1


 Iteration IRREP Converged      Max. Euclidean
                 roots          residual norm

    1       a        0        1.085233285895317D-01
 
    2       a        0        4.843666149340972D-02
 
    3       a        0        2.225079282630269D-02
 
    4       a        0        9.398536460679813D-03
 
    5       a        0        3.538707755628796D-03
 
    6       a        0        1.233967391921476D-03
 
    7       a        0        4.763782941738190D-04
 
    8       a        0        1.632028829784919D-04
 
    9       a        0        8.187811123315050D-05
 
   10       a        0        1.909487171014104D-05
 
   11       a        1        8.056042294530248D-06
 

 converged!


 Switching to fine grid

 preparing numerical integration ....
          Overall gridpoints after grid construction =        372351

 Iteration IRREP Converged      Max. Euclidean
                 roots          residual norm

   12       a        0        1.622738806859372D-05
 

 NOTE: Residual norms are larger than 1.00D-05 due to mgrid option!

 Eigenpairs written on logfile dipl_a   



 IRREP   Vector     Frequency            Euclidean residual norm

  a         1    0.000000000000000D+00    1.622738806859372D-05
 

                          -------------------
                           relaxed densities 
                          -------------------


    ----------------------------------------
     S+T+V CONTRIBUTIONS TO ENERGY GRADIENT 
    ----------------------------------------

 1e-integral 1st. derivatives will be neglected if expon. factor < 0.100000E-10


    -----------------------------------------------
     TWO ELECTRON CONTRIBUTIONS TO ENERGY GRADIENT 
    -----------------------------------------------

 setting up bound for integral derivative estimation

 increment for numerical differentiation : 0.00050000

 biggest AO integral is expected to be    21.668154127
 biggest cartesian 1st derivative AO integral is expected to be    83.347447328

 biggest 1-particle AO density matrix element is expected to be    3.2070492725

 core memory to be involved in 2e-gradient :
   symmetry shell pair data              :         1
   two particle density+dens. estimates  :      8556
   derivative integrals                  :      8498
   derivative integral bound             :     21780
   totally                               :     30276


 setting up bound for integral derivative estimation

 increment for numerical differentiation : 0.00050000

 biggest AO integral is expected to be    21.668154127
 biggest cartesian 1st derivative AO integral is expected to be    83.347447328

 2e-integral 1st. derivatives will be neglected if expon. factor < 0.100000E-06
 outer boundary for 2e-integral derivative neglection is 0.162046E-08

 Integrated ground state density     :   161.9999978654281    


          ------------------------------------------------
           cartesian gradient of the energy (hartree/bohr)
          ------------------------------------------------

  ATOM      1 o           2 c           3 c           4 c           5 c 
dE/dx -0.1764942D-02  0.3012818D-02 -0.1687357D-02  0.1280300D-02 -0.1173271D-02
dE/dy  0.3284014D-03  0.2824134D-02 -0.2391163D-02  0.3348347D-02 -0.3797661D-02
dE/dz -0.9512051D-04  0.4733274D-03 -0.3591680D-03  0.4767199D-03 -0.9861856D-03

  ATOM      6 c           7 c           8 s           9 c          10 n 
dE/dx  0.4880311D-03 -0.2672972D-04 -0.8397709D-03  0.1718950D-02 -0.2268479D-02
dE/dy  0.3995289D-02 -0.3819953D-02  0.3057875D-03  0.1945575D-03 -0.4994901D-03
dE/dz  0.7577713D-03 -0.5097563D-03  0.2176710D-03 -0.5353606D-03  0.5854586D-03

  ATOM     11 c          12 s          13 n          14 c          15 c 
dE/dx  0.1592302D-02 -0.1246483D-02  0.1746148D-02 -0.2888906D-02  0.7697750D-03
dE/dy  0.1108340D-03 -0.9882426D-03  0.9048542D-03 -0.1855306D-02  0.2322261D-02
dE/dz -0.6034597D-04  0.1029898D-03  0.1937157D-03 -0.4470124D-03  0.2487252D-02

  ATOM     16 h          17 h          18 o          19 br         20 h 
dE/dx -0.5806410D-03  0.9681489D-03  0.1621248D-03  0.1787949D-03 -0.3200696D-03
dE/dy -0.2510992D-04 -0.7348983D-03  0.5132924D-03  0.4204306D-03 -0.1789747D-02
dE/dz -0.8003105D-03 -0.1550208D-02  0.1135489D-03  0.1959349D-04 -0.1027987D-03

  ATOM     21 h 
dE/dx  0.8673232D-03
dE/dy  0.6199781D-03
dE/dz  0.1797574D-04
 
 resulting FORCE  (fx,fy,fz) = (-.119D-04,-.134D-04,-.243D-06)
 resulting MOMENT (mx,my,mz) = (-.122D-04,-.207D-04,0.777D-04)


 **********************************************************************
  |maximum component of gradient| : 0.39952888E-02  (atom  6 c )       
   gradient norm                  : 0.11980138E-01
 **********************************************************************

 exx =      -0.005905 eyy =       0.015195 ezz =       0.001291
 eyz =       0.001292 exz =      -0.002607 exy =       0.001901


 <getgrd> : data group $grad  is missing 

   ***  cartesian gradients written onto <gradient>  ***
 
 
 
 ==============================================================================
                           electrostatic moments
 ==============================================================================

 reference point for electrostatic moments:    0.00000   0.00000   0.00000

 
              nuc           gs,e       ->  gs,tot          excit     ->  total
 ------------------------------------------------------------------------------
                          charge      
 ------------------------------------------------------------------------------
         161.000000    -162.000000      -1.000000       0.000000      -1.000000
 
 ------------------------------------------------------------------------------
                       dipole moment  
 ------------------------------------------------------------------------------
   x    -632.700599     637.729395       5.028797      -1.241658       3.787139
   y     776.949824    -783.107789      -6.157966       1.272767      -4.885198
   z       0.743786      -0.751952      -0.008166       0.003960      -0.004206
 
   | dipole moment | =     6.1812 a.u. =    15.7111 debye 
 
 ------------------------------------------------------------------------------
                     quadrupole moment
 ------------------------------------------------------------------------------
  xx    7670.398044   -7844.975218    -174.577175       2.117313    -172.459861
  yy    5798.866778   -5935.508247    -136.641469      13.602697    -123.038771
  zz       5.706860     -98.525136     -92.818276       0.197653     -92.620624
  xy   -4800.820267    4835.469507      34.649240     -12.168099      22.481141
  xz      -5.228370       5.231746       0.003376      -0.027649      -0.024273
  yz       9.475074      -9.541591      -0.066517       0.026991      -0.039525
 
     1/3  trace=    -129.373085
     anisotropy=      79.920069
 
 ==============================================================================
 


    ------------------------------------------------------------------------
         total  cpu-time :  5 minutes and 52 seconds
         total wall-time :  5 minutes and 52 seconds
    ------------------------------------------------------------------------

   ****  egrad : all done  ****


    2018-02-09 19:21:10.043 

$dipole from egrad
  x     3.78713853229522    y    -4.88519820159433    z    -0.00420582355996    a.u.
   | dipole | =   15.7112368571  debye
/work/bdnguye2/luc_project/7_brluc/ex_geo_opt/save/numforce/KraftWerk/p064
