 operating system is UNIX !

 ridft (missouri) : TURBOMOLE V7.2 ( 21454 ) 4 Oct 2017 at 12:48:15
 Copyright (C) 2017 TURBOMOLE GmbH, Karlsruhe


    2018-02-09 19:21:10.085 



                                  r i d f t

                        DFT program with RI approximation 
                                for coulomb part 




                                                 
                                 References:     
                                                 
          TURBOMOLE:                             
              R. Ahlrichs, M. Baer, M. Haeser, H. Horn, and
              C. Koelmel
              Electronic structure calculations on workstation
              computers: the program system TURBOMOLE
              Chem. Phys. Lett. 162: 165 (1989)
          Density Functional:                              
              O. Treutler and R. Ahlrichs                      
              Efficient Molecular Numerical Integration Schemes
              J. Chem. Phys. 102: 346 (1995)                   
          Parallel Version:                                
              Performance of parallel TURBOMOLE for Density    
              Functional Calculations                          
              M. v. Arnim and R. Ahlrichs                      
              J. Comp. Chem. 19: 1746 (1998)                   
          RI-J Method:                                     
              Auxiliary Basis Sets to approximate Coulomb      
              Potentials                                       
              Chem. Phys. Lett. 240: 283 (1995)                
              K. Eichkorn, O. Treutler, H. Oehm, M. Haeser     
              and R. Ahlrichs                                  
              Chem. Phys. Lett. 242: 652 (1995)                
                                                           
              Auxiliary Basis Sets for Main Row Atoms and their
              Use to approximate Coulomb Potentials            
              K. Eichkorn, F. Weigend, O. Treutler and         
              R. Ahlrichs                                      
              Theo. Chem. Acc. 97: 119 (1997)                   
                                                           
              Accurate Coulomb-fitting basis sets for H to Rn 
              F. Weigend                                        
              Phys. Chem. Chem. Phys. 8: 1057 (2006)            
                                                           
          Multipole accelerated RI-J (MARI-J):             
              Fast evaluation of the Coulomb potential for     
              electron densities using multipole accelerated   
              resolution of identity approximation             
              M. Sierka, A. Hogekamp and R. Ahlrichs           
              J. Chem. Phys. 118: 9136 (2003)                  
          RI-JK Method:                                     
              A fully direct RI-HF algorithm: Implementation,
              optimised auxiliary basis sets, demonstration of
              accuracy and efficiency                         
              F. Weigend                                      
              Phys. Chem. Chem. Phys. 4: 4285 (2002)           
          Two-component HF and DFT with spin-orbit coupling:  
              Self-consistent treatment of spin-orbit         
              interactions with efficient Hartree-Fock and    
              density functional methods                      
              M. K. Armbruster, F. Weigend, C. van Wüllen and 
              W. Klopper                                      
              Phys. Chem. Chem. Phys. 10: 1748 (2008)         
          Relativistic all-electron 2c calculations           
              An efficient implementation of two-component    
              relativistic exact-decoupling methods for large 
              molecules                                       
              D. Peng, N. Middendorf, F. Weigend, M. Reiher   
              J. Chem. Phys. 138, 184105 (2013)               
                                         




              +--------------------------------------------------+
              |      general information about current run       |
              +--------------------------------------------------+

 
 PBE0 hybrid functional
 exchange:    3/4 (LDA+PBE) + 1/4 HF
 correlation: LDA (PW) + PBE
 A Hybrid-DFT calculation using the RI-J approximation will be carried out.
 Allocatable memory for RI due to $ricore (MB):                  5000


              +--------------------------------------------------+
              | Atomic coordinate, charge and isotop information |
              +--------------------------------------------------+

                    atomic coordinates            atom    charge  isotop
        -12.81631090    6.80250069    0.00569323    o      8.000     0
        -10.86495226    5.50799131    0.00104077    c      6.000     0
         -8.33436915    6.66034989    0.00750595    c      6.000     0
         -6.09299039    5.19332886    0.00341150    c      6.000     0
         -6.19830601    2.52750883   -0.00631148    c      6.000     0
         -8.59342964    1.37280358   -0.01137266    c      6.000     0
        -10.80445505    2.76811118   -0.00874948    c      6.000     0
         -3.01252993    6.22326894    0.00977832    s     16.000     0
         -2.04263069    3.03014626   -0.00283936    c      6.000     0
         -3.85445303    1.36173915   -0.00760673    n      7.000     0
          0.62680415    2.54788329   -0.00341946    c      6.000     0
          1.62444152   -0.64999636   -0.01112997    s     16.000     0
          2.37022511    4.30616883    0.00337604    n      7.000     0
          4.78082463    3.37755467    0.00501770    c      6.000     0
          4.85108289    0.43977975   -0.00947233    c      6.000     0
          5.88368117   -0.23106204    1.67843938    h      1.000     0
          5.88635152   -0.22394124   -1.69661701    h      1.000     0
          6.72778630    4.59449798    0.01249000    o      8.000     0
         -8.16291838   10.16526386    0.01802254    br    35.000     0
         -8.67113502   -0.69982890   -0.01482955    h      1.000     0
        -12.64368675    1.83738933   -0.00918144    h      1.000     0
 
       center of nuclear mass  :   -4.07433314    5.04245858    0.00391055
       center of nuclear charge:   -3.92912216    4.82635555    0.00330243

              +--------------------------------------------------+
              |               basis set information              |
              +--------------------------------------------------+

              we will work with the 1s 3p 5d 7f 9g ... basis set
              ...i.e. with spherical basis functions...

   type   atoms  prim   cont   basis
   ---------------------------------------------------------------------------
    o        2     24     14   def2-SV(P)   [3s2p1d|7s4p1d]
    c       10     24     14   def2-SV(P)   [3s2p1d|7s4p1d]
    s        2     36     18   def2-SV(P)   [4s3p1d|10s7p1d]
    n        2     24     14   def2-SV(P)   [3s2p1d|7s4p1d]
    h        4      4      2   def2-SV(P)   [2s|4s]
    br       1     74     32   def2-SV(P)   [5s4p3d|14s10p6d]
   ---------------------------------------------------------------------------
   total:   21    498    272
   ---------------------------------------------------------------------------

   total number of primitive shells          :   88
   total number of contracted shells         :  120
   total number of cartesian basis functions :  291
   total number of SCF-basis functions       :  272


 integral neglect threshold       :  0.11E-10
 integral storage threshold THIZE :  0.10E-04
 integral storage threshold THIME :         5

 RI-J AUXILIARY BASIS SET information:

              we will work with the 1s 3p 5d 7f 9g ... basis set
              ...i.e. with spherical basis functions...

   type   atoms  prim   cont   basis
   ---------------------------------------------------------------------------
    o        2     70     49   def2-SV(P)   [6s4p3d1f1g|12s5p4d2f1g]
    c       10     70     49   def2-SV(P)   [6s4p3d1f1g|12s5p4d2f1g]
    s        2     77     51   def2-SV(P)   [8s4p3d1f1g|14s5p5d2f1g]
    n        2     70     49   def2-SV(P)   [6s4p3d1f1g|12s5p4d2f1g]
    h        4     16     11   def2-SV(P)   [3s1p1d|5s2p1d]
    br       1     89     58   def2-SV(P)   [8s4p3d2f1g|19s5p5d3f1g]
   ---------------------------------------------------------------------------
   total:   21   1287    890
   ---------------------------------------------------------------------------

   total number of primitive shells          :  140
   total number of contracted shells         :  282
   total number of cartesian basis functions : 1101
   total number of SCF-basis functions       :  890


 symmetry group of the molecule :   c1 

 the group has the following generators :
   c1(z)

    1 symmetry operations found

 there are 1 real representations :   a   

 maximum number of shells which are related by symmetry :  1


    mo occupation :
   irrep   mo's   occupied
    a      272       81
 
 number of basis functions   :                    272
 number of occupied orbitals :                     81
 
  
           ------------------
           density functional
           ------------------
 PBE0 hybrid functional
 exchange:    3/4 (LDA+PBE) + 1/4 HF
 correlation: LDA (PW) + PBE

 iterations will be done with small grid
  
 spherical integration : Lebedev's spherical grid
 spherical gridsize    :                     5
    i.e. gridpoints    :                   590
 value for diffuse not defined
 radial integration    : Chebyshev 2nd kind (scaling 3)
 radial gridsize       :                     8
 integration cells     :                    21
 partition function    : becke
 partition sharpness   :                     3
  

 biggest AO integral is expected to be    21.668154127
  
           ------------------------
               RI-J - INFORMATION
           ------------------------
 Contributions to RI integral batches: 
  neglected integral batches:                  2258
  direct contribution:                            0
  memory contribution:                  5002
 Memory core needed for (P|Q) and Cholesky      7 MByte
 Memory core minimum needed except of (P|Q)     1 MByte
 Total minimum memory core needed (sum)         7 MByte
  
 ****************************************
 Memory allocated for RI-J   249 MByte
 ****************************************
                                            

          ------------------------
          nuclear repulsion energy  :   1710.93965266    
          ------------------------


         -----------------
         -S,T+V- integrals
         -----------------

 1e-integrals will be neglected if expon. factor < 0.114844E-11
 
   Difference densities algorithm switched on.
   The maximal number of linear combinations of
   difference densities is                    20 .

 DIIS switched on: error vector is FDS-SDF
 Max. Iterations for DIIS is     :   4
 DIIS matrix (see manual) 
    Scaling factor of diagonals  :  1.200
    threshold for scaling factor :  0.000

 scf convergence criterion : increment of total energy < .1000000D-06
                  and increment of one-electron energy < .1000000D-03

  MOs are in ASCII format !


 automatic virtual orbital shift switched on 
      shift if e(lumo)-e(homo) < 0.10000000    


 reading orbital data $scfmo  from file mos
 orbital characterization : scfconv=7

 dump of DSCF restart information has been disabled !


 Starting SCF iterations

          Overall gridpoints after grid construction =        122129

 ITERATION  ENERGY          1e-ENERGY        2e-ENERGY     NORM[dD(SAO)]  TOL
   1  -4011.7254699516    -8982.7214001     3260.0562775    0.000D+00 0.115D-10
                            Exc = -172.726065602     Coul =  3488.44143124    
                            exK = -55.6590881506    
                              N = 162.00000334    
                            current damping = 0.700
 
          max. resid. norm for Fia-block=  3.697D-03 for orbital      1a         
          max. resid. fock norm         =  1.050D-02 for orbital      1a         

 ITERATION  ENERGY          1e-ENERGY        2e-ENERGY     NORM[dD(SAO)]  TOL
   2  -4011.7255355324    -8982.7309519     3260.0657637    0.203D-01 0.726D-11
                            Exc = -172.726707278      Eck =  3432.79247094    
                              N = 162.00000335    
                            current damping = 0.650
 
          Norm of current diis error: 0.81078E-02
          max. resid. norm for Fia-block=  1.522D-03 for orbital      1a         
          max. resid. fock norm         =  4.323D-03 for orbital      1a         

 ITERATION  ENERGY          1e-ENERGY        2e-ENERGY     NORM[dD(SAO)]  TOL
   3  -4011.7255475367    -8982.7332891     3260.0680889    0.608D-02 0.565D-11
                            Exc = -172.726130618      Eck =  3432.79421948    
                              N = 162.00000336    
                            current damping = 0.500
 
          Norm of current diis error: 0.54207E-02
          max. resid. norm for Fia-block=  5.997D-04 for orbital      1a         
          max. resid. fock norm         =  1.703D-03 for orbital      1a         

 ITERATION  ENERGY          1e-ENERGY        2e-ENERGY     NORM[dD(SAO)]  TOL
   4  -4011.7255524186    -8982.7289991     3260.0637940    0.210D-02 0.519D-11
                            Exc = -172.726438801      Eck =  3432.79023284    
                              N = 162.00000335    
                            current damping = 0.550
 
          Norm of current diis error: 0.18465E-02
          max. resid. norm for Fia-block=  2.000D-04 for orbital      1a         
          max. resid. fock norm         =  5.677D-04 for orbital      1a         

 ITERATION  ENERGY          1e-ENERGY        2e-ENERGY     NORM[dD(SAO)]  TOL
   5  -4011.7255529638    -8982.7324330     3260.0672273    0.129D-02 0.496D-11
                            Exc = -172.726372466      Eck =  3432.79359979    
                              N = 162.00000336    
                            current damping = 0.600
 
          Norm of current diis error: 0.99399E-03
          max. resid. norm for Fia-block=  7.095D-05 for orbital      1a         
          max. resid. fock norm         =  2.015D-04 for orbital      1a         
          mo-orthogonalization: Cholesky decomposition

 ITERATION  ENERGY          1e-ENERGY        2e-ENERGY     NORM[dD(SAO)]  TOL
   6  -4011.7255533871    -8982.7318071     3260.0666011    0.478D-03 0.485D-11
                            Exc = -172.726392709      Eck =  3432.79299381    
                              N = 162.00000337    
                            current damping = 0.650
 
          Norm of current diis error: 0.31020E-03
          max. resid. norm for Fia-block=  2.842D-05 for orbital     80a         
          max. resid. fock norm         =  7.555D-05 for orbital      1a         

 ENERGY CONVERGED !

          Overall gridpoints after grid construction =        372367

 ITERATION  ENERGY          1e-ENERGY        2e-ENERGY     NORM[dD(SAO)]  TOL
   7  -4011.7255505571    -8982.7317601     3260.0665569    0.216D-03 0.474D-11
                            Exc = -172.726366098      Eck =  3432.79292300    
                              N = 161.99999777    
                            current damping = 0.500
 
          Norm of current diis error: 0.17619E-03
          max. resid. norm for Fia-block=  1.176D-05 for orbital     81a         
          max. resid. fock norm         =  2.976D-05 for orbital      1a         

 End of SCF iterations

   convergence criteria satisfied after     7 iterations


                  ------------------------------------------ 
                 |  total energy      =  -4011.72555055710  |
                  ------------------------------------------ 
                 :  kinetic energy    =   4002.29857670785  :
                 :  potential energy  =  -8014.02412726495  :
                 :  virial theorem    =      1.99765014487  :
                 :  wavefunction norm =      1.00000000000  :
                  .......................................... 


 <geterg> : there is no data group $energy 


 orbitals $scfmo  will be written to file mos

    irrep                 77a         78a         79a         80a         81a   
 eigenvalues H         -0.16850    -0.16330    -0.12821    -0.11911    -0.07395
            eV          -4.5853     -4.4437     -3.4889     -3.2411     -2.0122
 occupation              2.0000      2.0000      2.0000      2.0000      2.0000 

    irrep                 82a         83a         84a         85a         86a   
 eigenvalues H          0.01716     0.10870     0.11898     0.12881     0.13559
            eV           0.4668      2.9579      3.2376      3.5051      3.6898
 
 
 
 
 ==============================================================================
                           electrostatic moments
 ==============================================================================

 reference point for electrostatic moments:    0.00000   0.00000   0.00000

 
              nuc           elec       ->  total
 ------------------------------------------------------------------------------
                          charge      
 ------------------------------------------------------------------------------
         161.000000    -162.000000      -1.000000
 
 ------------------------------------------------------------------------------
                       dipole moment  
 ------------------------------------------------------------------------------
   x    -632.588668     637.668534       5.079865
   y     777.043244    -783.199104      -6.155860
   z       0.531692      -0.539403      -0.007711
 
   | dipole moment | =     7.9812 a.u. =    20.2862 debye 
 
 ------------------------------------------------------------------------------
                     quadrupole moment
 ------------------------------------------------------------------------------
  xx    7670.940081   -7845.724022    -174.783941
  yy    5798.158458   -5934.826342    -136.667884
  zz       5.715541     -98.523198     -92.807657
  xy   -4800.487274    4835.447436      34.960162
  xz      -4.716162       4.717631       0.001470
  yz       8.364068      -8.431368      -0.067300
 
     1/3  trace=    -134.753161
     anisotropy=      93.354082
 
 ==============================================================================
 


    ------------------------------------------------------------------------
         total  cpu-time :  1 minutes and  3 seconds
         total wall-time :  1 minutes and  3 seconds
    ------------------------------------------------------------------------

   ****  ridft : all done  ****


    2018-02-09 19:22:12.740 


 egrad (missouri) : TURBOMOLE V7.2 ( 21454 ) 4 Oct 2017 at 12:24:43
 Copyright (C) 2017 TURBOMOLE GmbH, Karlsruhe


    2018-02-09 19:22:12.761 




                               e g r a d

                             TURBOMOLE GmbH


             integral direct evaluation of excited state
                     and polarizability gradients
                 and first-order nonadiabatic couplings



          references (see also programs escf, dscf and ridft) 

          review 
          F. Furche and D. Rappoport,  
          "Density functional methods for excited states: 
          equilibrium structure and electronic spectra",
          ch. III of "Computational Photochemistry", ed. by 
          M. Olivucci, vol. 16 of "Theoretical and Computational 
          Chemistry", Elsevier, Amsterdam, 2005.

          nonorthonormal Krylov space methods 
          F. Furche, B. T. Krull, B. D. Nguyen, J. Kwon, 
          J. Chem. Phys. 144 (2016), 174105.

          RI-J method 
          D. Rappoport and F. Furche, 
          J. Chem. Phys. 122 (2005), 064105.

          Lagrangian method, implementation, benchmarks 
          F. Furche and R. Ahlrichs,
          J. Chem. Phys. 117 (2002), 7433;
          J. Chem. Phys. 121 (2004), 12772 (E).

          Polarizability derivatives, Raman intensities 
          D. Rappoport and F. Furche, 
          J. Chem. Phys. 126 (2007), 201104.

          First-order nonadiabatic couplings 
          R. Send and F. Furche, 
          J. Chem. Phys. 132 (2010), 044107.
                                     




              +--------------------------------------------------+
              | Atomic coordinate, charge and isotop information |
              +--------------------------------------------------+

                    atomic coordinates            atom    charge  isotop
        -12.81631090    6.80250069    0.00569323    o      8.000     0
        -10.86495226    5.50799131    0.00104077    c      6.000     0
         -8.33436915    6.66034989    0.00750595    c      6.000     0
         -6.09299039    5.19332886    0.00341150    c      6.000     0
         -6.19830601    2.52750883   -0.00631148    c      6.000     0
         -8.59342964    1.37280358   -0.01137266    c      6.000     0
        -10.80445505    2.76811118   -0.00874948    c      6.000     0
         -3.01252993    6.22326894    0.00977832    s     16.000     0
         -2.04263069    3.03014626   -0.00283936    c      6.000     0
         -3.85445303    1.36173915   -0.00760673    n      7.000     0
          0.62680415    2.54788329   -0.00341946    c      6.000     0
          1.62444152   -0.64999636   -0.01112997    s     16.000     0
          2.37022511    4.30616883    0.00337604    n      7.000     0
          4.78082463    3.37755467    0.00501770    c      6.000     0
          4.85108289    0.43977975   -0.00947233    c      6.000     0
          5.88368117   -0.23106204    1.67843938    h      1.000     0
          5.88635152   -0.22394124   -1.69661701    h      1.000     0
          6.72778630    4.59449798    0.01249000    o      8.000     0
         -8.16291838   10.16526386    0.01802254    br    35.000     0
         -8.67113502   -0.69982890   -0.01482955    h      1.000     0
        -12.64368675    1.83738933   -0.00918144    h      1.000     0
 
       center of nuclear mass  :   -4.07433314    5.04245858    0.00391055
       center of nuclear charge:   -3.92912216    4.82635555    0.00330243

              +--------------------------------------------------+
              |               basis set information              |
              +--------------------------------------------------+

              we will work with the 1s 3p 5d 7f 9g ... basis set
              ...i.e. with spherical basis functions...

   type   atoms  prim   cont   basis
   ---------------------------------------------------------------------------
    o        2     24     14   def2-SV(P)   [3s2p1d|7s4p1d]
    c       10     24     14   def2-SV(P)   [3s2p1d|7s4p1d]
    s        2     36     18   def2-SV(P)   [4s3p1d|10s7p1d]
    n        2     24     14   def2-SV(P)   [3s2p1d|7s4p1d]
    h        4      4      2   def2-SV(P)   [2s|4s]
    br       1     74     32   def2-SV(P)   [5s4p3d|14s10p6d]
   ---------------------------------------------------------------------------
   total:   21    498    272
   ---------------------------------------------------------------------------

   total number of primitive shells          :   88
   total number of contracted shells         :  120
   total number of cartesian basis functions :  291
   total number of SCF-basis functions       :  272


 residuum convergence criterium   :  0.10E-04


 integral neglect threshold       :  0.11E-10
 integral storage threshold THIZE :  0.10E-04
 integral storage threshold THIME :         5

 
             FOUND RI-J FLAG !
 
  
 AUXILIARY BASIS SET information:

              we will work with the 1s 3p 5d 7f 9g ... basis set
              ...i.e. with spherical basis functions...

   type   atoms  prim   cont   basis
   ---------------------------------------------------------------------------
    o        2     70     49   def2-SV(P)   [6s4p3d1f1g|12s5p4d2f1g]
    c       10     70     49   def2-SV(P)   [6s4p3d1f1g|12s5p4d2f1g]
    s        2     77     51   def2-SV(P)   [8s4p3d1f1g|14s5p5d2f1g]
    n        2     70     49   def2-SV(P)   [6s4p3d1f1g|12s5p4d2f1g]
    h        4     16     11   def2-SV(P)   [3s1p1d|5s2p1d]
    br       1     89     58   def2-SV(P)   [8s4p3d2f1g|19s5p5d3f1g]
   ---------------------------------------------------------------------------
   total:   21   1287    890
   ---------------------------------------------------------------------------

   total number of primitive shells          :  140
   total number of contracted shells         :  282
   total number of cartesian basis functions : 1101
   total number of SCF-basis functions       :  890

 RPA SINGLET-EXCITATION-CALCULATION 
 
             FOUND DFT-FLAG !
 

 symmetry group of the molecule :   c1 

 the group has the following generators :
   c1(z)

    1 symmetry operations found

 there are 1 real representations :   a   

 maximum number of shells which are related by symmetry :  1

 IRREP of excited state :   a   
 

 determining totally symmetric integral contributions 
    - equivalent to irreducible tensor elements - 
 which can be formed within each triple of representations :

             representation triple      contributions

              a     a     a               1

    mo occupation :
   irrep   mo's   occupied
    a      272       81
 
 number of basis functions   :                    272
 number of occupied orbitals :                     81
 
  
           ------------------
           density functional
           ------------------
 PBE0 hybrid functional
 exchange:    3/4 (LDA+PBE) + 1/4 HF
 correlation: LDA (PW) + PBE

 iterations will be done with small grid
  
 spherical integration : Lebedev's spherical grid
 spherical gridsize    :                     5
    i.e. gridpoints    :                   590
 value for diffuse not defined
 radial integration    : Chebyshev 2nd kind (scaling 3)
 radial gridsize       :                     8
 integration cells     :                    21
 partition function    : becke
 partition sharpness   :                     3
  
  
           ----------------------
               RI - INFORMATION
           ----------------------

 biggest AO integral is expected to be    21.668154127

 Threshold for integral neglect (rithr2):   0.11E-10
 Threshold for integral neglect (rithr1):   0.11E-10

 Contributions to RI integral batches: 
  neglected integral batches:                  2114
  direct contribution:                            0
  memory contribution:                  5146
 Core memory available (ricore)            5000 MiB
 Core memory needed for (P|Q) and Cholesky 7 MiB
 Core memory used for integrals            251 MiB
  
 ****************************************
 Memory allocated for RIDFT 257 MiB
 ****************************************
                                            
  MOs are in ASCII format !


 reading orbital data $scfmo  from file mos
 orbital characterization : scfconv=7
 preparing numerical integration ....
          Overall gridpoints after grid construction =        122129

 Calculating ground state density on molecular grid

 Integral of ground state density: N =   162.0000033758595    



 number of non-frozen orbitals          :   272
 number of non-frozen occupied orbitals :    81



                        -------------------
                         excitation vector 
                        -------------------


 dimension of super-tensorspace: 2

          IRREP   tensor space dimension   number of roots

           a             15471                   1

 maximum number of Davidson iterations set to   25


 machine precision: 2.22D-16


 logfile sing_a    will be constructed


                       Nonorthonormal Krylov Space Iteration


 total number of roots to be determined:   1


 maximum core memory set to  5000 MB,
 corresponding to     3796 vectors in CAO basis


 maximum number of simultaneously treated vectors (including degeneracy):        2


 Iteration IRREP Converged      Max. Euclidean
                 roots          residual norm

    1       a        0        2.980797676096385D-02
 
    2       a        0        1.511597140958892D-02
 
    3       a        0        7.705601934557309D-03
 
    4       a        0        5.106102740316957D-02
 
    5       a        0        2.368427185587902D-02
 
    6       a        0        9.443028298668870D-03
 
    7       a        0        3.894555926517663D-03
 
    8       a        0        1.566213002603021D-03
 
    9       a        0        7.498540977264479D-04
 
   10       a        0        3.731187856716521D-04
 
   11       a        0        1.225199913309190D-04
 
   12       a        0        5.327315013118166D-05
 
   13       a        0        2.127453653868479D-05
 
   14       a        1        9.801798859081081D-06
 

 converged!


 Switching to fine grid

 preparing numerical integration ....
          Overall gridpoints after grid construction =        372367

 Calculating ground state density on molecular grid

 Integral of ground state density: N =   161.9999977705503    



 Iteration IRREP Converged      Max. Euclidean
                 roots          residual norm

   15       a        0        1.191443839858563D-05
 

 NOTE: Residual norms are larger than 1.00D-05 due to mgrid option!

 Eigenpairs written on logfile sing_a   



 IRREP   Vector     Eigenvalue           Euclidean residual norm

  a         1    8.343363127090987D-02    1.191443839858563D-05
 




                    Selection rules for point group c1  


 Subduction with respect to c1  :

    Polar vector representation: a                           

    Axial vector representation: a                           

    Symmetric second rank tensor representation: a                           




                            Ground state


 Total energy:                           -4011.725550557000    

 Charge:

               elec          nuc         total

          -162.000000   161.000000    -1.000000


 Electric dipole moment:

               elec          nuc         total   

    x      637.668534  -632.588668     5.079865    Norm:              7.981209
    y     -783.199104   777.043244    -6.155860
    z       -0.539403     0.531692    -0.007711    Norm / debye:     20.286364


 Electric quadrupole moment:

               elec          nuc         total   

   xx    -7845.724022  7670.940081  -174.783941
   yy    -5934.826342  5798.158458  -136.667884    1/3*trace:      -134.753161
   zz      -98.523198     5.715541   -92.807657
   xy     4835.447436 -4800.487274    34.960162
   xz        4.717631    -4.716162     0.001470    Anisotropy:       93.354082
   yz       -8.431368     8.364068    -0.067300



 ==============================================================================

                              I R R E P   a   

 ==============================================================================


 Excitation is electric dipole allowed

 Excitation is magnetic dipole allowed

 Excitation is electric quadrupole allowed




                         1 singlet a excitation


 Total energy:                           -4011.642116925729    

 Excitation energy:                      0.8343363127090987E-01

 Excitation energy / eV:                  2.270345594414429    

 Excitation energy / nm:                  546.1029559178039    

 Excitation energy / cm^(-1):             18311.56541114292    


 Oscillator strength:

    velocity representation:             0.3072065911421743    

    length representation:               0.3587205821517580    

    mixed representation:                0.3319600727757894    


 Rotatory strength:

    velocity representation:             0.1859384487758599E-06

    velocity rep. / 10^(-40)erg*cm^3:    0.1201251934602735E-01

    length representation:               0.2232419225775719E-06

    length rep. / 10^(-40)erg*cm^3:      0.1442250342230231E-01


 Dominant contributions:

      occ. orbital   energy / eV   virt. orbital     energy / eV   |coeff.|^2*100
       81 a              -2.01          82 a               0.47       91.5
 

 Change of electron number:

            -0.000000


 Electric transition dipole moment (velocity rep.):

    x        2.309097        Norm:                  2.350122
    y       -0.437196
    z       -0.000068        Norm / debye:          5.973458


 Electric transition dipole moment (length rep.):

    x        2.492368        Norm:                  2.539529
    y       -0.487147
    z       -0.000024        Norm / debye:          6.454888


 Magnetic transition dipole moment / i:

    x       -0.000001        Norm:                  0.001063
    y       -0.000005
    z       -0.001063        Norm / Bohr mag.:      0.291275


 Electric quadrupole transition moment:

   xx      -18.714659
   yy       -4.472098        1/3*trace:            -7.691813
   zz        0.111319
   xy       11.265336
   xz        0.000805        Anisotropy:           25.881677
   yz       -0.002803
 

 Excited state no.    1 chosen for optimization


                       ----------------------
                        CPKS right-hand side 
                       ----------------------


          IRREP   tensor space dimension   number of roots

           a             15471                   1

                          ----------------
                           CPKS equations 
                          ----------------


 logfile dipl_a    will be constructed

 Switching to coarse grid

 preparing numerical integration ....
          Overall gridpoints after grid construction =        122129


                       Nonorthonormal Krylov Space Iteration


 total number of roots to be determined:   1


 maximum core memory set to  5000 MB,
 corresponding to     7544 vectors in CAO basis


 maximum number of simultaneously treated vectors (including degeneracy):        1


 Iteration IRREP Converged      Max. Euclidean
                 roots          residual norm

    1       a        0        1.095183039508137D-01
 
    2       a        0        4.893416395207461D-02
 
    3       a        0        2.240942662720939D-02
 
    4       a        0        9.480191228101786D-03
 
    5       a        0        3.556193372276595D-03
 
    6       a        0        1.242995149786741D-03
 
    7       a        0        4.754574809458772D-04
 
    8       a        0        1.640095741394674D-04
 
    9       a        0        8.227219266591442D-05
 
   10       a        0        1.917158099278124D-05
 
   11       a        1        8.150075660579325D-06
 

 converged!


 Switching to fine grid

 preparing numerical integration ....
          Overall gridpoints after grid construction =        372367

 Iteration IRREP Converged      Max. Euclidean
                 roots          residual norm

   12       a        0        1.631415705174883D-05
 

 NOTE: Residual norms are larger than 1.00D-05 due to mgrid option!

 Eigenpairs written on logfile dipl_a   



 IRREP   Vector     Frequency            Euclidean residual norm

  a         1    0.000000000000000D+00    1.631415705174883D-05
 

                          -------------------
                           relaxed densities 
                          -------------------


    ----------------------------------------
     S+T+V CONTRIBUTIONS TO ENERGY GRADIENT 
    ----------------------------------------

 1e-integral 1st. derivatives will be neglected if expon. factor < 0.100000E-10


    -----------------------------------------------
     TWO ELECTRON CONTRIBUTIONS TO ENERGY GRADIENT 
    -----------------------------------------------

 setting up bound for integral derivative estimation

 increment for numerical differentiation : 0.00050000

 biggest AO integral is expected to be    21.668154127
 biggest cartesian 1st derivative AO integral is expected to be    83.347447328

 biggest 1-particle AO density matrix element is expected to be    3.2069697499

 core memory to be involved in 2e-gradient :
   symmetry shell pair data              :         1
   two particle density+dens. estimates  :      8556
   derivative integrals                  :      8498
   derivative integral bound             :     21780
   totally                               :     30276


 setting up bound for integral derivative estimation

 increment for numerical differentiation : 0.00050000

 biggest AO integral is expected to be    21.668154127
 biggest cartesian 1st derivative AO integral is expected to be    83.347447328

 2e-integral 1st. derivatives will be neglected if expon. factor < 0.100000E-06
 outer boundary for 2e-integral derivative neglection is 0.162054E-08

 Integrated ground state density     :   161.9999977705489    


          ------------------------------------------------
           cartesian gradient of the energy (hartree/bohr)
          ------------------------------------------------

  ATOM      1 o           2 c           3 c           4 c           5 c 
dE/dx -0.1761525D-02  0.3858360D-02 -0.2572973D-02  0.1590823D-02 -0.3807228D-02
dE/dy  0.9962167D-04  0.2945493D-02 -0.1408251D-02  0.2576512D-02 -0.4594111D-02
dE/dz  0.4264567D-04 -0.7240108D-04  0.9992017D-04  0.5396380D-05 -0.9203321D-04

  ATOM      6 c           7 c           8 s           9 c          10 n 
dE/dx  0.3654325D-02 -0.3502180D-02  0.3720792D-03 -0.2171727D-02  0.3082570D-02
dE/dy  0.3684523D-02 -0.3394837D-02  0.8542728D-03 -0.2786610D-02  0.2798380D-02
dE/dz -0.5498281D-04 -0.1177002D-03  0.8750739D-04 -0.1385480D-03  0.1622031D-03

  ATOM     11 c          12 s          13 n          14 c          15 c 
dE/dx -0.1150032D-02  0.5894199D-03  0.1091921D-03  0.4318685D-02 -0.1475277D-02
dE/dy -0.9205201D-03  0.1771412D-02 -0.1034078D-02  0.3930239D-02 -0.1344921D-02
dE/dz -0.4753521D-04  0.1268050D-03 -0.1403362D-03  0.5573832D-03 -0.9350192D-03

  ATOM     16 h          17 h          18 o          19 br         20 h 
dE/dx  0.4629495D-03  0.3045994D-03 -0.3505190D-02  0.2395570D-03 -0.4230539D-03
dE/dy  0.6892130D-04 -0.2783640D-04 -0.2498936D-02 -0.1082789D-03 -0.1502972D-02
dE/dz  0.8436983D-03 -0.3237611D-03 -0.1058649D-03 -0.2703323D-04  0.6097919D-04

  ATOM     21 h 
dE/dx  0.1773570D-02
dE/dy  0.8779823D-03
dE/dz  0.6850617D-04
 
 resulting FORCE  (fx,fy,fz) = (-.131D-04,-.140D-04,-.171D-06)
 resulting MOMENT (mx,my,mz) = (-.103D-04,-.375D-05,0.113D-03)


 **********************************************************************
  |maximum component of gradient| : 0.45941109E-02  (atom  5 c )       
   gradient norm                  : 0.15287062E-01
 **********************************************************************

 exx =      -0.011917 eyy =       0.000442 ezz =       0.001975
 eyz =       0.000165 exz =       0.000226 exy =      -0.013113


 <getgrd> : data group $grad  is missing 

   ***  cartesian gradients written onto <gradient>  ***
 
 
 
 ==============================================================================
                           electrostatic moments
 ==============================================================================

 reference point for electrostatic moments:    0.00000   0.00000   0.00000

 
              nuc           gs,e       ->  gs,tot          excit     ->  total
 ------------------------------------------------------------------------------
                          charge      
 ------------------------------------------------------------------------------
         161.000000    -162.000000      -1.000000       0.000000      -1.000000
 
 ------------------------------------------------------------------------------
                       dipole moment  
 ------------------------------------------------------------------------------
   x    -632.588668     637.668534       5.079865      -1.268393       3.811473
   y     777.043244    -783.199104      -6.155860       1.278974      -4.876886
   z       0.531692      -0.539403      -0.007711       0.003680      -0.004032
 
   | dipole moment | =     6.1896 a.u. =    15.7324 debye 
 
 ------------------------------------------------------------------------------
                     quadrupole moment
 ------------------------------------------------------------------------------
  xx    7670.940081   -7845.724022    -174.783941       2.243120    -172.540821
  yy    5798.158458   -5934.826342    -136.667884      13.662491    -123.005393
  zz       5.715541     -98.523198     -92.807657       0.197629     -92.610027
  xy   -4800.487274    4835.447436      34.960162     -12.281658      22.678503
  xz      -4.716162       4.717631       0.001470      -0.028793      -0.027323
  yz       8.364068      -8.431368      -0.067300       0.024513      -0.042787
 
     1/3  trace=    -129.385414
     anisotropy=      80.163805
 
 ==============================================================================
 


    ------------------------------------------------------------------------
         total  cpu-time :  6 minutes and  0 seconds
         total wall-time :  6 minutes and  0 seconds
    ------------------------------------------------------------------------

   ****  egrad : all done  ****


    2018-02-09 19:28:13.241 

$dipole from egrad
  x     3.81147285094710    y    -4.87688570290288    z    -0.00403151375252    a.u.
   | dipole | =   15.7325554673  debye
/work/bdnguye2/luc_project/7_brluc/ex_geo_opt/save/numforce/KraftWerk/p065
