 operating system is UNIX !

 ridft (missouri) : TURBOMOLE V7.2 ( 21454 ) 4 Oct 2017 at 12:48:15
 Copyright (C) 2017 TURBOMOLE GmbH, Karlsruhe


    2018-02-09 19:48:46.758 



                                  r i d f t

                        DFT program with RI approximation 
                                for coulomb part 




                                                 
                                 References:     
                                                 
          TURBOMOLE:                             
              R. Ahlrichs, M. Baer, M. Haeser, H. Horn, and
              C. Koelmel
              Electronic structure calculations on workstation
              computers: the program system TURBOMOLE
              Chem. Phys. Lett. 162: 165 (1989)
          Density Functional:                              
              O. Treutler and R. Ahlrichs                      
              Efficient Molecular Numerical Integration Schemes
              J. Chem. Phys. 102: 346 (1995)                   
          Parallel Version:                                
              Performance of parallel TURBOMOLE for Density    
              Functional Calculations                          
              M. v. Arnim and R. Ahlrichs                      
              J. Comp. Chem. 19: 1746 (1998)                   
          RI-J Method:                                     
              Auxiliary Basis Sets to approximate Coulomb      
              Potentials                                       
              Chem. Phys. Lett. 240: 283 (1995)                
              K. Eichkorn, O. Treutler, H. Oehm, M. Haeser     
              and R. Ahlrichs                                  
              Chem. Phys. Lett. 242: 652 (1995)                
                                                           
              Auxiliary Basis Sets for Main Row Atoms and their
              Use to approximate Coulomb Potentials            
              K. Eichkorn, F. Weigend, O. Treutler and         
              R. Ahlrichs                                      
              Theo. Chem. Acc. 97: 119 (1997)                   
                                                           
              Accurate Coulomb-fitting basis sets for H to Rn 
              F. Weigend                                        
              Phys. Chem. Chem. Phys. 8: 1057 (2006)            
                                                           
          Multipole accelerated RI-J (MARI-J):             
              Fast evaluation of the Coulomb potential for     
              electron densities using multipole accelerated   
              resolution of identity approximation             
              M. Sierka, A. Hogekamp and R. Ahlrichs           
              J. Chem. Phys. 118: 9136 (2003)                  
          RI-JK Method:                                     
              A fully direct RI-HF algorithm: Implementation,
              optimised auxiliary basis sets, demonstration of
              accuracy and efficiency                         
              F. Weigend                                      
              Phys. Chem. Chem. Phys. 4: 4285 (2002)           
          Two-component HF and DFT with spin-orbit coupling:  
              Self-consistent treatment of spin-orbit         
              interactions with efficient Hartree-Fock and    
              density functional methods                      
              M. K. Armbruster, F. Weigend, C. van Wüllen and 
              W. Klopper                                      
              Phys. Chem. Chem. Phys. 10: 1748 (2008)         
          Relativistic all-electron 2c calculations           
              An efficient implementation of two-component    
              relativistic exact-decoupling methods for large 
              molecules                                       
              D. Peng, N. Middendorf, F. Weigend, M. Reiher   
              J. Chem. Phys. 138, 184105 (2013)               
                                         




              +--------------------------------------------------+
              |      general information about current run       |
              +--------------------------------------------------+

 
 PBE0 hybrid functional
 exchange:    3/4 (LDA+PBE) + 1/4 HF
 correlation: LDA (PW) + PBE
 A Hybrid-DFT calculation using the RI-J approximation will be carried out.
 Allocatable memory for RI due to $ricore (MB):                  5000


              +--------------------------------------------------+
              | Atomic coordinate, charge and isotop information |
              +--------------------------------------------------+

                    atomic coordinates            atom    charge  isotop
        -12.81667981    6.80333406    0.00823150    o      8.000     0
        -10.86579503    5.50427713   -0.00105102    c      6.000     0
         -8.33312924    6.66578228    0.01123443    c      6.000     0
         -6.09833545    5.18635101    0.00431119    c      6.000     0
         -6.19290428    2.53210738   -0.00652586    c      6.000     0
         -8.60011464    1.36860458   -0.00730616    c      6.000     0
        -10.79984464    2.76840718   -0.01067748    c      6.000     0
         -3.01494757    6.22305150    0.01112324    s     16.000     0
         -2.04301339    3.03039537   -0.00066704    c      6.000     0
         -3.85388338    1.35994080   -0.01105383    n      7.000     0
          0.62498202    2.55283459    0.00243751    c      6.000     0
          1.62207029   -0.65625655   -0.01414471    s     16.000     0
          2.37225189    4.31299771    0.00691790    n      7.000     0
          4.77498196    3.37157249    0.00618273    c      6.000     0
          4.85505639    0.44274525   -0.00980816    c      6.000     0
          5.88020000   -0.23227741    1.67977764    h      1.000     0
          5.88513615   -0.22527950   -1.69695284    h      1.000     0
          6.73126747    4.59847148    0.00952450    o      8.000     0
         -8.16890056   10.16409883    0.02156440    br    35.000     0
         -8.66529234   -0.69780212   -0.02165844    h      1.000     0
        -12.64994693    1.84040408   -0.00918144    h      1.000     0
 
       center of nuclear mass  :   -4.07621915    5.04191162    0.00506256
       center of nuclear charge:   -3.93087501    4.82584286    0.00434952

              +--------------------------------------------------+
              |               basis set information              |
              +--------------------------------------------------+

              we will work with the 1s 3p 5d 7f 9g ... basis set
              ...i.e. with spherical basis functions...

   type   atoms  prim   cont   basis
   ---------------------------------------------------------------------------
    o        2     24     14   def2-SV(P)   [3s2p1d|7s4p1d]
    c       10     24     14   def2-SV(P)   [3s2p1d|7s4p1d]
    s        2     36     18   def2-SV(P)   [4s3p1d|10s7p1d]
    n        2     24     14   def2-SV(P)   [3s2p1d|7s4p1d]
    h        4      4      2   def2-SV(P)   [2s|4s]
    br       1     74     32   def2-SV(P)   [5s4p3d|14s10p6d]
   ---------------------------------------------------------------------------
   total:   21    498    272
   ---------------------------------------------------------------------------

   total number of primitive shells          :   88
   total number of contracted shells         :  120
   total number of cartesian basis functions :  291
   total number of SCF-basis functions       :  272


 integral neglect threshold       :  0.11E-10
 integral storage threshold THIZE :  0.10E-04
 integral storage threshold THIME :         5

 RI-J AUXILIARY BASIS SET information:

              we will work with the 1s 3p 5d 7f 9g ... basis set
              ...i.e. with spherical basis functions...

   type   atoms  prim   cont   basis
   ---------------------------------------------------------------------------
    o        2     70     49   def2-SV(P)   [6s4p3d1f1g|12s5p4d2f1g]
    c       10     70     49   def2-SV(P)   [6s4p3d1f1g|12s5p4d2f1g]
    s        2     77     51   def2-SV(P)   [8s4p3d1f1g|14s5p5d2f1g]
    n        2     70     49   def2-SV(P)   [6s4p3d1f1g|12s5p4d2f1g]
    h        4     16     11   def2-SV(P)   [3s1p1d|5s2p1d]
    br       1     89     58   def2-SV(P)   [8s4p3d2f1g|19s5p5d3f1g]
   ---------------------------------------------------------------------------
   total:   21   1287    890
   ---------------------------------------------------------------------------

   total number of primitive shells          :  140
   total number of contracted shells         :  282
   total number of cartesian basis functions : 1101
   total number of SCF-basis functions       :  890


 symmetry group of the molecule :   c1 

 the group has the following generators :
   c1(z)

    1 symmetry operations found

 there are 1 real representations :   a   

 maximum number of shells which are related by symmetry :  1


    mo occupation :
   irrep   mo's   occupied
    a      272       81
 
 number of basis functions   :                    272
 number of occupied orbitals :                     81
 
  
           ------------------
           density functional
           ------------------
 PBE0 hybrid functional
 exchange:    3/4 (LDA+PBE) + 1/4 HF
 correlation: LDA (PW) + PBE

 iterations will be done with small grid
  
 spherical integration : Lebedev's spherical grid
 spherical gridsize    :                     5
    i.e. gridpoints    :                   590
 value for diffuse not defined
 radial integration    : Chebyshev 2nd kind (scaling 3)
 radial gridsize       :                     8
 integration cells     :                    21
 partition function    : becke
 partition sharpness   :                     3
  

 biggest AO integral is expected to be    21.668154127
  
           ------------------------
               RI-J - INFORMATION
           ------------------------
 Contributions to RI integral batches: 
  neglected integral batches:                  2258
  direct contribution:                            0
  memory contribution:                  5002
 Memory core needed for (P|Q) and Cholesky      7 MByte
 Memory core minimum needed except of (P|Q)     1 MByte
 Total minimum memory core needed (sum)         7 MByte
  
 ****************************************
 Memory allocated for RI-J   249 MByte
 ****************************************
                                            

          ------------------------
          nuclear repulsion energy  :   1710.60307493    
          ------------------------


         -----------------
         -S,T+V- integrals
         -----------------

 1e-integrals will be neglected if expon. factor < 0.114844E-11
 
   Difference densities algorithm switched on.
   The maximal number of linear combinations of
   difference densities is                    20 .

 DIIS switched on: error vector is FDS-SDF
 Max. Iterations for DIIS is     :   4
 DIIS matrix (see manual) 
    Scaling factor of diagonals  :  1.200
    threshold for scaling factor :  0.000

 scf convergence criterion : increment of total energy < .1000000D-06
                  and increment of one-electron energy < .1000000D-03

  MOs are in ASCII format !


 automatic virtual orbital shift switched on 
      shift if e(lumo)-e(homo) < 0.10000000    


 reading orbital data $scfmo  from file mos
 orbital characterization : scfconv=7

 dump of DSCF restart information has been disabled !


 Starting SCF iterations

          Overall gridpoints after grid construction =        122130

 ITERATION  ENERGY          1e-ENERGY        2e-ENERGY     NORM[dD(SAO)]  TOL
   1  -4011.7251369076    -8982.0650722     3259.7368604    0.000D+00 0.115D-10
                            Exc = -172.722257540     Coul =  3488.11661540    
                            exK = -55.6574974967    
                              N = 162.00000287    
                            current damping = 0.700
 
          max. resid. norm for Fia-block=  3.913D-03 for orbital      1a         
          max. resid. fock norm         =  8.399D-03 for orbital    199a         

 ITERATION  ENERGY          1e-ENERGY        2e-ENERGY     NORM[dD(SAO)]  TOL
   2  -4011.7252038420    -8982.0512232     3259.7229444    0.208D-01 0.726D-11
                            Exc = -172.720597145      Eck =  3432.44354154    
                              N = 162.00000274    
                            current damping = 0.650
 
          Norm of current diis error: 0.85432E-02
          max. resid. norm for Fia-block=  1.611D-03 for orbital      1a         
          max. resid. fock norm         =  2.907D-03 for orbital      1a         

 ITERATION  ENERGY          1e-ENERGY        2e-ENERGY     NORM[dD(SAO)]  TOL
   3  -4011.7252154303    -8982.0407213     3259.7124310    0.756D-02 0.568D-11
                            Exc = -172.721633822      Eck =  3432.43406478    
                              N = 162.00000266    
                            current damping = 0.500
 
          Norm of current diis error: 0.58440E-02
          max. resid. norm for Fia-block=  6.348D-04 for orbital      1a         
          max. resid. fock norm         =  1.180D-03 for orbital    200a         

 ITERATION  ENERGY          1e-ENERGY        2e-ENERGY     NORM[dD(SAO)]  TOL
   4  -4011.7252209524    -8982.0527934     3259.7244975    0.264D-02 0.523D-11
                            Exc = -172.720922106      Eck =  3432.44541957    
                              N = 162.00000265    
                            current damping = 0.550
 
          Norm of current diis error: 0.21755E-02
          max. resid. norm for Fia-block=  2.117D-04 for orbital      1a         
          max. resid. fock norm         =  4.234D-04 for orbital    198a         

 ITERATION  ENERGY          1e-ENERGY        2e-ENERGY     NORM[dD(SAO)]  TOL
   5  -4011.7252217089    -8982.0460557     3259.7177591    0.152D-02 0.504D-11
                            Exc = -172.721092806      Eck =  3432.43885190    
                              N = 162.00000262    
                            current damping = 0.600
 
          Norm of current diis error: 0.12220E-02
          max. resid. norm for Fia-block=  7.634D-05 for orbital     81a         
          max. resid. fock norm         =  1.569D-04 for orbital    222a         
          mo-orthogonalization: Cholesky decomposition

 ITERATION  ENERGY          1e-ENERGY        2e-ENERGY     NORM[dD(SAO)]  TOL
   6  -4011.7252222110    -8982.0466373     3259.7183402    0.548D-03 0.490D-11
                            Exc = -172.721046516      Eck =  3432.43938669    
                              N = 162.00000264    
                            current damping = 0.650
 
          Norm of current diis error: 0.33422E-03
          max. resid. norm for Fia-block=  2.894D-05 for orbital     79a         
          max. resid. fock norm         =  5.492D-05 for orbital    241a         

 ITERATION  ENERGY          1e-ENERGY        2e-ENERGY     NORM[dD(SAO)]  TOL
   7  -4011.7252222291    -8982.0473163     3259.7190191    0.195D-03 0.481D-11
                            Exc = -172.721052089      Eck =  3432.44007121    
                              N = 162.00000264    
                            current damping = 0.500
 
          Norm of current diis error: 0.20098E-03
          max. resid. norm for Fia-block=  1.208D-05 for orbital     81a         
          max. resid. fock norm         =  2.408D-05 for orbital    196a         

 ENERGY CONVERGED !

          Overall gridpoints after grid construction =        372376

 ITERATION  ENERGY          1e-ENERGY        2e-ENERGY     NORM[dD(SAO)]  TOL
   8  -4011.7252198196    -8982.0474067     3259.7191119    0.791D-04 0.470D-11
                            Exc = -172.721043866      Eck =  3432.44015581    
                              N = 161.99999770    
                            current damping = 0.350
 
          Norm of current diis error: 0.10762E-03
          max. resid. norm for Fia-block=  8.110D-06 for orbital     76a         
          max. resid. fock norm         =  1.221D-05 for orbital    266a         

 End of SCF iterations

   convergence criteria satisfied after     8 iterations


                  ------------------------------------------ 
                 |  total energy      =  -4011.72521981958  |
                  ------------------------------------------ 
                 :  kinetic energy    =   4002.27083286331  :
                 :  potential energy  =  -8013.99605268289  :
                 :  virial theorem    =      1.99764331143  :
                 :  wavefunction norm =      1.00000000000  :
                  .......................................... 


 <geterg> : there is no data group $energy 


 orbitals $scfmo  will be written to file mos

    irrep                 77a         78a         79a         80a         81a   
 eigenvalues H         -0.16907    -0.16296    -0.12922    -0.11966    -0.07401
            eV          -4.6006     -4.4345     -3.5162     -3.2562     -2.0139
 occupation              2.0000      2.0000      2.0000      2.0000      2.0000 

    irrep                 82a         83a         84a         85a         86a   
 eigenvalues H          0.01665     0.10839     0.11856     0.12742     0.13541
            eV           0.4532      2.9495      3.2261      3.4674      3.6848
 
 
 
 
 ==============================================================================
                           electrostatic moments
 ==============================================================================

 reference point for electrostatic moments:    0.00000   0.00000   0.00000

 
              nuc           elec       ->  total
 ------------------------------------------------------------------------------
                          charge      
 ------------------------------------------------------------------------------
         161.000000    -162.000000      -1.000000
 
 ------------------------------------------------------------------------------
                       dipole moment  
 ------------------------------------------------------------------------------
   x    -632.870876     637.893747       5.022871
   y     776.960701    -783.117450      -6.156749
   z       0.700273      -0.709343      -0.009070
 
   | dipole moment | =     7.9457 a.u. =    20.1961 debye 
 
 ------------------------------------------------------------------------------
                     quadrupole moment
 ------------------------------------------------------------------------------
  xx    7674.917758   -7849.617891    -174.700134
  yy    5797.955945   -5934.517139    -136.561195
  zz       5.728750     -98.545132     -92.816382
  xy   -4802.272170    4836.848233      34.576063
  xz      -6.223584       6.264469       0.040885
  yz      10.156293     -10.237564      -0.081272
 
     1/3  trace=    -134.692570
     anisotropy=      92.860677
 
 ==============================================================================
 


    ------------------------------------------------------------------------
         total  cpu-time :  1 minutes and  7 seconds
         total wall-time :  1 minutes and  7 seconds
    ------------------------------------------------------------------------

   ****  ridft : all done  ****


    2018-02-09 19:49:53.537 


 egrad (missouri) : TURBOMOLE V7.2 ( 21454 ) 4 Oct 2017 at 12:24:43
 Copyright (C) 2017 TURBOMOLE GmbH, Karlsruhe


    2018-02-09 19:49:53.557 




                               e g r a d

                             TURBOMOLE GmbH


             integral direct evaluation of excited state
                     and polarizability gradients
                 and first-order nonadiabatic couplings



          references (see also programs escf, dscf and ridft) 

          review 
          F. Furche and D. Rappoport,  
          "Density functional methods for excited states: 
          equilibrium structure and electronic spectra",
          ch. III of "Computational Photochemistry", ed. by 
          M. Olivucci, vol. 16 of "Theoretical and Computational 
          Chemistry", Elsevier, Amsterdam, 2005.

          nonorthonormal Krylov space methods 
          F. Furche, B. T. Krull, B. D. Nguyen, J. Kwon, 
          J. Chem. Phys. 144 (2016), 174105.

          RI-J method 
          D. Rappoport and F. Furche, 
          J. Chem. Phys. 122 (2005), 064105.

          Lagrangian method, implementation, benchmarks 
          F. Furche and R. Ahlrichs,
          J. Chem. Phys. 117 (2002), 7433;
          J. Chem. Phys. 121 (2004), 12772 (E).

          Polarizability derivatives, Raman intensities 
          D. Rappoport and F. Furche, 
          J. Chem. Phys. 126 (2007), 201104.

          First-order nonadiabatic couplings 
          R. Send and F. Furche, 
          J. Chem. Phys. 132 (2010), 044107.
                                     




              +--------------------------------------------------+
              | Atomic coordinate, charge and isotop information |
              +--------------------------------------------------+

                    atomic coordinates            atom    charge  isotop
        -12.81667981    6.80333406    0.00823150    o      8.000     0
        -10.86579503    5.50427713   -0.00105102    c      6.000     0
         -8.33312924    6.66578228    0.01123443    c      6.000     0
         -6.09833545    5.18635101    0.00431119    c      6.000     0
         -6.19290428    2.53210738   -0.00652586    c      6.000     0
         -8.60011464    1.36860458   -0.00730616    c      6.000     0
        -10.79984464    2.76840718   -0.01067748    c      6.000     0
         -3.01494757    6.22305150    0.01112324    s     16.000     0
         -2.04301339    3.03039537   -0.00066704    c      6.000     0
         -3.85388338    1.35994080   -0.01105383    n      7.000     0
          0.62498202    2.55283459    0.00243751    c      6.000     0
          1.62207029   -0.65625655   -0.01414471    s     16.000     0
          2.37225189    4.31299771    0.00691790    n      7.000     0
          4.77498196    3.37157249    0.00618273    c      6.000     0
          4.85505639    0.44274525   -0.00980816    c      6.000     0
          5.88020000   -0.23227741    1.67977764    h      1.000     0
          5.88513615   -0.22527950   -1.69695284    h      1.000     0
          6.73126747    4.59847148    0.00952450    o      8.000     0
         -8.16890056   10.16409883    0.02156440    br    35.000     0
         -8.66529234   -0.69780212   -0.02165844    h      1.000     0
        -12.64994693    1.84040408   -0.00918144    h      1.000     0
 
       center of nuclear mass  :   -4.07621915    5.04191162    0.00506256
       center of nuclear charge:   -3.93087501    4.82584286    0.00434952

              +--------------------------------------------------+
              |               basis set information              |
              +--------------------------------------------------+

              we will work with the 1s 3p 5d 7f 9g ... basis set
              ...i.e. with spherical basis functions...

   type   atoms  prim   cont   basis
   ---------------------------------------------------------------------------
    o        2     24     14   def2-SV(P)   [3s2p1d|7s4p1d]
    c       10     24     14   def2-SV(P)   [3s2p1d|7s4p1d]
    s        2     36     18   def2-SV(P)   [4s3p1d|10s7p1d]
    n        2     24     14   def2-SV(P)   [3s2p1d|7s4p1d]
    h        4      4      2   def2-SV(P)   [2s|4s]
    br       1     74     32   def2-SV(P)   [5s4p3d|14s10p6d]
   ---------------------------------------------------------------------------
   total:   21    498    272
   ---------------------------------------------------------------------------

   total number of primitive shells          :   88
   total number of contracted shells         :  120
   total number of cartesian basis functions :  291
   total number of SCF-basis functions       :  272


 residuum convergence criterium   :  0.10E-04


 integral neglect threshold       :  0.11E-10
 integral storage threshold THIZE :  0.10E-04
 integral storage threshold THIME :         5

 
             FOUND RI-J FLAG !
 
  
 AUXILIARY BASIS SET information:

              we will work with the 1s 3p 5d 7f 9g ... basis set
              ...i.e. with spherical basis functions...

   type   atoms  prim   cont   basis
   ---------------------------------------------------------------------------
    o        2     70     49   def2-SV(P)   [6s4p3d1f1g|12s5p4d2f1g]
    c       10     70     49   def2-SV(P)   [6s4p3d1f1g|12s5p4d2f1g]
    s        2     77     51   def2-SV(P)   [8s4p3d1f1g|14s5p5d2f1g]
    n        2     70     49   def2-SV(P)   [6s4p3d1f1g|12s5p4d2f1g]
    h        4     16     11   def2-SV(P)   [3s1p1d|5s2p1d]
    br       1     89     58   def2-SV(P)   [8s4p3d2f1g|19s5p5d3f1g]
   ---------------------------------------------------------------------------
   total:   21   1287    890
   ---------------------------------------------------------------------------

   total number of primitive shells          :  140
   total number of contracted shells         :  282
   total number of cartesian basis functions : 1101
   total number of SCF-basis functions       :  890

 RPA SINGLET-EXCITATION-CALCULATION 
 
             FOUND DFT-FLAG !
 

 symmetry group of the molecule :   c1 

 the group has the following generators :
   c1(z)

    1 symmetry operations found

 there are 1 real representations :   a   

 maximum number of shells which are related by symmetry :  1

 IRREP of excited state :   a   
 

 determining totally symmetric integral contributions 
    - equivalent to irreducible tensor elements - 
 which can be formed within each triple of representations :

             representation triple      contributions

              a     a     a               1

    mo occupation :
   irrep   mo's   occupied
    a      272       81
 
 number of basis functions   :                    272
 number of occupied orbitals :                     81
 
  
           ------------------
           density functional
           ------------------
 PBE0 hybrid functional
 exchange:    3/4 (LDA+PBE) + 1/4 HF
 correlation: LDA (PW) + PBE

 iterations will be done with small grid
  
 spherical integration : Lebedev's spherical grid
 spherical gridsize    :                     5
    i.e. gridpoints    :                   590
 value for diffuse not defined
 radial integration    : Chebyshev 2nd kind (scaling 3)
 radial gridsize       :                     8
 integration cells     :                    21
 partition function    : becke
 partition sharpness   :                     3
  
  
           ----------------------
               RI - INFORMATION
           ----------------------

 biggest AO integral is expected to be    21.668154127

 Threshold for integral neglect (rithr2):   0.11E-10
 Threshold for integral neglect (rithr1):   0.11E-10

 Contributions to RI integral batches: 
  neglected integral batches:                  2114
  direct contribution:                            0
  memory contribution:                  5146
 Core memory available (ricore)            5000 MiB
 Core memory needed for (P|Q) and Cholesky 7 MiB
 Core memory used for integrals            250 MiB
  
 ****************************************
 Memory allocated for RIDFT 256 MiB
 ****************************************
                                            
  MOs are in ASCII format !


 reading orbital data $scfmo  from file mos
 orbital characterization : scfconv=7
 preparing numerical integration ....
          Overall gridpoints after grid construction =        122130

 Calculating ground state density on molecular grid

 Integral of ground state density: N =   162.0000026359878    



 number of non-frozen orbitals          :   272
 number of non-frozen occupied orbitals :    81



                        -------------------
                         excitation vector 
                        -------------------


 dimension of super-tensorspace: 2

          IRREP   tensor space dimension   number of roots

           a             15471                   1

 maximum number of Davidson iterations set to   25


 machine precision: 2.22D-16


 logfile sing_a    will be constructed


                       Nonorthonormal Krylov Space Iteration


 total number of roots to be determined:   1


 maximum core memory set to  5000 MB,
 corresponding to     3796 vectors in CAO basis


 maximum number of simultaneously treated vectors (including degeneracy):        2


 Iteration IRREP Converged      Max. Euclidean
                 roots          residual norm

    1       a        0        3.112391449778185D-02
 
    2       a        0        8.905739515065411D-02
 
    3       a        0        4.168180912925887D-02
 
    4       a        0        1.793943319263291D-02
 
    5       a        0        6.578503277156870D-03
 
    6       a        0        2.943751740516192D-03
 
    7       a        0        1.402580788753703D-03
 
    8       a        0        6.136706583776567D-04
 
    9       a        0        2.664338225809015D-04
 
   10       a        0        1.036541985674813D-04
 
   11       a        0        5.806642710472304D-05
 
   12       a        0        1.583192726980253D-05
 
   13       a        1        6.414242251350600D-06
 

 converged!


 Switching to fine grid

 preparing numerical integration ....
          Overall gridpoints after grid construction =        372376

 Calculating ground state density on molecular grid

 Integral of ground state density: N =   161.9999976951378    



 Iteration IRREP Converged      Max. Euclidean
                 roots          residual norm

   14       a        1        9.270722797894211D-06
 

 converged!

 Eigenpairs written on logfile sing_a   



 IRREP   Vector     Eigenvalue           Euclidean residual norm

  a         1    8.309544569740876D-02    9.270722797894211D-06
 




                    Selection rules for point group c1  


 Subduction with respect to c1  :

    Polar vector representation: a                           

    Axial vector representation: a                           

    Symmetric second rank tensor representation: a                           




                            Ground state


 Total energy:                           -4011.725219820000    

 Charge:

               elec          nuc         total

          -162.000000   161.000000    -1.000000


 Electric dipole moment:

               elec          nuc         total   

    x      637.893747  -632.870876     5.022871    Norm:              7.945746
    y     -783.117450   776.960701    -6.156749
    z       -0.709343     0.700273    -0.009070    Norm / debye:     20.196224


 Electric quadrupole moment:

               elec          nuc         total   

   xx    -7849.617891  7674.917758  -174.700134
   yy    -5934.517139  5797.955945  -136.561195    1/3*trace:      -134.692570
   zz      -98.545132     5.728750   -92.816382
   xy     4836.848233 -4802.272170    34.576063
   xz        6.264469    -6.223584     0.040885    Anisotropy:       92.860677
   yz      -10.237564    10.156293    -0.081272



 ==============================================================================

                              I R R E P   a   

 ==============================================================================


 Excitation is electric dipole allowed

 Excitation is magnetic dipole allowed

 Excitation is electric quadrupole allowed




                         1 singlet a excitation


 Total energy:                           -4011.642124374303    

 Excitation energy:                      0.8309544569740876E-01

 Excitation energy / eV:                  2.261143092794912    

 Excitation energy / nm:                  548.3255102321551    

 Excitation energy / cm^(-1):             18237.34225729069    


 Oscillator strength:

    velocity representation:             0.3093259440095509    

    length representation:               0.3610265260315544    

    mixed representation:                0.3341725517447165    


 Rotatory strength:

    velocity representation:             0.2798374546599922E-05

    velocity rep. / 10^(-40)erg*cm^3:    0.1807884738190110    

    length representation:               0.2333554129182157E-05

    length rep. / 10^(-40)erg*cm^3:      0.1507588360898598    


 Dominant contributions:

      occ. orbital   energy / eV   virt. orbital     energy / eV   |coeff.|^2*100
       81 a              -2.01          82 a               0.45       91.8
 

 Change of electron number:

            -0.000000


 Electric transition dipole moment (velocity rep.):

    x        2.320624        Norm:                  2.363008
    y       -0.445543
    z       -0.000810        Norm / debye:          6.006213


 Electric transition dipole moment (length rep.):

    x        2.504308        Norm:                  2.552858
    y       -0.495501
    z       -0.000145        Norm / debye:          6.488766


 Magnetic transition dipole moment / i:

    x       -0.000000        Norm:                  0.001071
    y       -0.000006
    z       -0.001071        Norm / Bohr mag.:      0.293618


 Electric quadrupole transition moment:

   xx      -18.768271
   yy       -4.576716        1/3*trace:            -7.745535
   zz        0.108383
   xy       11.385979
   xz        0.004028        Anisotropy:           26.053040
   yz       -0.003433
 

 Excited state no.    1 chosen for optimization


                       ----------------------
                        CPKS right-hand side 
                       ----------------------


          IRREP   tensor space dimension   number of roots

           a             15471                   1

                          ----------------
                           CPKS equations 
                          ----------------


 logfile dipl_a    will be constructed

 Switching to coarse grid

 preparing numerical integration ....
          Overall gridpoints after grid construction =        122130


                       Nonorthonormal Krylov Space Iteration


 total number of roots to be determined:   1


 maximum core memory set to  5000 MB,
 corresponding to     7544 vectors in CAO basis


 maximum number of simultaneously treated vectors (including degeneracy):        1


 Iteration IRREP Converged      Max. Euclidean
                 roots          residual norm

    1       a        0        1.094061587956329D-01
 
    2       a        0        4.907307703467281D-02
 
    3       a        0        2.258249723937609D-02
 
    4       a        0        9.538396963227400D-03
 
    5       a        0        3.564233651343103D-03
 
    6       a        0        1.243701305719196D-03
 
    7       a        0        4.762000163489126D-04
 
    8       a        0        1.636954051443432D-04
 
    9       a        0        8.245390937038632D-05
 
   10       a        0        1.916941482055068D-05
 
   11       a        1        8.114456213156839D-06
 

 converged!


 Switching to fine grid

 preparing numerical integration ....
          Overall gridpoints after grid construction =        372376

 Iteration IRREP Converged      Max. Euclidean
                 roots          residual norm

   12       a        0        1.631742948855575D-05
 

 NOTE: Residual norms are larger than 1.00D-05 due to mgrid option!

 Eigenpairs written on logfile dipl_a   



 IRREP   Vector     Frequency            Euclidean residual norm

  a         1    0.000000000000000D+00    1.631742948855575D-05
 

                          -------------------
                           relaxed densities 
                          -------------------


    ----------------------------------------
     S+T+V CONTRIBUTIONS TO ENERGY GRADIENT 
    ----------------------------------------

 1e-integral 1st. derivatives will be neglected if expon. factor < 0.100000E-10


    -----------------------------------------------
     TWO ELECTRON CONTRIBUTIONS TO ENERGY GRADIENT 
    -----------------------------------------------

 setting up bound for integral derivative estimation

 increment for numerical differentiation : 0.00050000

 biggest AO integral is expected to be    21.668154127
 biggest cartesian 1st derivative AO integral is expected to be    83.347447328

 biggest 1-particle AO density matrix element is expected to be    3.2069058682

 core memory to be involved in 2e-gradient :
   symmetry shell pair data              :         1
   two particle density+dens. estimates  :      8556
   derivative integrals                  :      8498
   derivative integral bound             :     21780
   totally                               :     30276


 setting up bound for integral derivative estimation

 increment for numerical differentiation : 0.00050000

 biggest AO integral is expected to be    21.668154127
 biggest cartesian 1st derivative AO integral is expected to be    83.347447328

 2e-integral 1st. derivatives will be neglected if expon. factor < 0.100000E-06
 outer boundary for 2e-integral derivative neglection is 0.162060E-08

 Integrated ground state density     :   161.9999976951371    


          ------------------------------------------------
           cartesian gradient of the energy (hartree/bohr)
          ------------------------------------------------

  ATOM      1 o           2 c           3 c           4 c           5 c 
dE/dx -0.2752544D-02  0.2907370D-02 -0.3454137D-03 -0.1003957D-02  0.3110613D-02
dE/dy  0.1925639D-02 -0.1620809D-02  0.2228706D-02 -0.3050071D-02  0.2453534D-02
dE/dz  0.3323159D-03 -0.8016847D-03  0.5278896D-03 -0.1281059D-03 -0.2171049D-03

  ATOM      6 c           7 c           8 s           9 c          10 n 
dE/dx -0.4566836D-02  0.2816193D-02  0.9289092D-03 -0.2249736D-02  0.2702397D-02
dE/dy -0.1920129D-03 -0.1620912D-02  0.1282231D-02 -0.3432722D-02  0.2004276D-02
dE/dz  0.8934604D-03 -0.3496108D-03 -0.2388260D-04 -0.3601708D-04 -0.1010816D-03

  ATOM     11 c          12 s          13 n          14 c          15 c 
dE/dx -0.2948813D-02 -0.7570618D-04  0.2367669D-02 -0.5651502D-02  0.1061984D-02
dE/dy  0.3409852D-04 -0.1249925D-02  0.2381899D-02 -0.3786295D-02  0.1007792D-03
dE/dz  0.3853182D-03 -0.3199813D-04 -0.3612605D-03  0.8185621D-03 -0.1055539D-02

  ATOM     16 h          17 h          18 o          19 br         20 h 
dE/dx  0.7146511D-04 -0.1155783D-03  0.4444018D-02 -0.1354649D-03  0.3104491D-03
dE/dy -0.3755309D-04 -0.2077103D-03  0.3241158D-02 -0.9704293D-03  0.7380885D-03
dE/dz  0.7418271D-03 -0.1777215D-03 -0.1911539D-03 -0.8746141D-04 -0.2877722D-03

  ATOM     21 h 
dE/dx -0.8874843D-03
dE/dy -0.2355761D-03
dE/dz  0.1510533D-03
 
 resulting FORCE  (fx,fy,fz) = (-.120D-04,-.136D-04,0.320D-07)
 resulting MOMENT (mx,my,mz) = (0.822D-05,0.482D-05,0.888D-04)


 **********************************************************************
  |maximum component of gradient| : 0.56515023E-02  (atom 14 c )       
   gradient norm                  : 0.14903814E-01
 **********************************************************************

 exx =       0.014785 eyy =       0.007589 ezz =       0.001572
 eyz =       0.000326 exz =       0.000251 exy =       0.003240


 <getgrd> : data group $grad  is missing 

   ***  cartesian gradients written onto <gradient>  ***
 
 
 
 ==============================================================================
                           electrostatic moments
 ==============================================================================

 reference point for electrostatic moments:    0.00000   0.00000   0.00000

 
              nuc           gs,e       ->  gs,tot          excit     ->  total
 ------------------------------------------------------------------------------
                          charge      
 ------------------------------------------------------------------------------
         161.000000    -162.000000      -1.000000       0.000000      -1.000000
 
 ------------------------------------------------------------------------------
                       dipole moment  
 ------------------------------------------------------------------------------
   x    -632.870876     637.893747       5.022871      -1.235506       3.787365
   y     776.960701    -783.117450      -6.156749       1.263651      -4.893098
   z       0.700273      -0.709343      -0.009070       0.004173      -0.004897
 
   | dipole moment | =     6.1876 a.u. =    15.7273 debye 
 
 ------------------------------------------------------------------------------
                     quadrupole moment
 ------------------------------------------------------------------------------
  xx    7674.917758   -7849.617891    -174.700134       2.043429    -172.656705
  yy    5797.955945   -5934.517139    -136.561195      13.517634    -123.043560
  zz       5.728750     -98.545132     -92.816382       0.199996     -92.616386
  xy   -4802.272170    4836.848233      34.576063     -12.068795      22.507268
  xz      -6.223584       6.264469       0.040885      -0.037382       0.003504
  yz      10.156293     -10.237564      -0.081272       0.028810      -0.052462
 
     1/3  trace=    -129.438884
     anisotropy=      80.103710
 
 ==============================================================================
 


    ------------------------------------------------------------------------
         total  cpu-time :  5 minutes and 43 seconds
         total wall-time :  5 minutes and 43 seconds
    ------------------------------------------------------------------------

   ****  egrad : all done  ****


    2018-02-09 19:55:36.874 

$dipole from egrad
  x     3.78736482741078    y    -4.89309793070640    z    -0.00489710146466    a.u.
   | dipole | =   15.7274642211  debye
/work/bdnguye2/luc_project/7_brluc/ex_geo_opt/save/numforce/KraftWerk/p069
