 operating system is UNIX !

 ridft (missouri) : TURBOMOLE V7.2 ( 21454 ) 4 Oct 2017 at 12:48:15
 Copyright (C) 2017 TURBOMOLE GmbH, Karlsruhe


    2018-02-09 20:49:30.126 



                                  r i d f t

                        DFT program with RI approximation 
                                for coulomb part 




                                                 
                                 References:     
                                                 
          TURBOMOLE:                             
              R. Ahlrichs, M. Baer, M. Haeser, H. Horn, and
              C. Koelmel
              Electronic structure calculations on workstation
              computers: the program system TURBOMOLE
              Chem. Phys. Lett. 162: 165 (1989)
          Density Functional:                              
              O. Treutler and R. Ahlrichs                      
              Efficient Molecular Numerical Integration Schemes
              J. Chem. Phys. 102: 346 (1995)                   
          Parallel Version:                                
              Performance of parallel TURBOMOLE for Density    
              Functional Calculations                          
              M. v. Arnim and R. Ahlrichs                      
              J. Comp. Chem. 19: 1746 (1998)                   
          RI-J Method:                                     
              Auxiliary Basis Sets to approximate Coulomb      
              Potentials                                       
              Chem. Phys. Lett. 240: 283 (1995)                
              K. Eichkorn, O. Treutler, H. Oehm, M. Haeser     
              and R. Ahlrichs                                  
              Chem. Phys. Lett. 242: 652 (1995)                
                                                           
              Auxiliary Basis Sets for Main Row Atoms and their
              Use to approximate Coulomb Potentials            
              K. Eichkorn, F. Weigend, O. Treutler and         
              R. Ahlrichs                                      
              Theo. Chem. Acc. 97: 119 (1997)                   
                                                           
              Accurate Coulomb-fitting basis sets for H to Rn 
              F. Weigend                                        
              Phys. Chem. Chem. Phys. 8: 1057 (2006)            
                                                           
          Multipole accelerated RI-J (MARI-J):             
              Fast evaluation of the Coulomb potential for     
              electron densities using multipole accelerated   
              resolution of identity approximation             
              M. Sierka, A. Hogekamp and R. Ahlrichs           
              J. Chem. Phys. 118: 9136 (2003)                  
          RI-JK Method:                                     
              A fully direct RI-HF algorithm: Implementation,
              optimised auxiliary basis sets, demonstration of
              accuracy and efficiency                         
              F. Weigend                                      
              Phys. Chem. Chem. Phys. 4: 4285 (2002)           
          Two-component HF and DFT with spin-orbit coupling:  
              Self-consistent treatment of spin-orbit         
              interactions with efficient Hartree-Fock and    
              density functional methods                      
              M. K. Armbruster, F. Weigend, C. van Wüllen and 
              W. Klopper                                      
              Phys. Chem. Chem. Phys. 10: 1748 (2008)         
          Relativistic all-electron 2c calculations           
              An efficient implementation of two-component    
              relativistic exact-decoupling methods for large 
              molecules                                       
              D. Peng, N. Middendorf, F. Weigend, M. Reiher   
              J. Chem. Phys. 138, 184105 (2013)               
                                         




              +--------------------------------------------------+
              |      general information about current run       |
              +--------------------------------------------------+

 
 PBE0 hybrid functional
 exchange:    3/4 (LDA+PBE) + 1/4 HF
 correlation: LDA (PW) + PBE
 A Hybrid-DFT calculation using the RI-J approximation will be carried out.
 Allocatable memory for RI due to $ricore (MB):                  5000


              +--------------------------------------------------+
              | Atomic coordinate, charge and isotop information |
              +--------------------------------------------------+

                    atomic coordinates            atom    charge  isotop
        -12.81667981    6.80536188    0.00823150    o      8.000     0
        -10.87122183    5.50427713    0.00601744    c      6.000     0
         -8.33312924    6.65936110    0.01123443    c      6.000     0
         -6.09464088    5.18635101    0.00453962    c      6.000     0
         -6.19290428    2.52802993   -0.00652586    c      6.000     0
         -8.59350853    1.36860458   -0.01430170    c      6.000     0
        -10.79984464    2.77352683   -0.01067748    c      6.000     0
         -3.01653347    6.22305150    0.00866183    s     16.000     0
         -2.04301339    3.03610702   -0.00066704    c      6.000     0
         -3.86099570    1.35994080   -0.00484398    n      7.000     0
          0.62498202    2.54953809    0.00243751    c      6.000     0
          1.62138594   -0.65625655   -0.00970112    s     16.000     0
          2.37225189    4.30623382    0.00691790    n      7.000     0
          4.78187583    3.37157249    0.00139126    c      6.000     0
          4.85505639    0.44388271   -0.00980816    c      6.000     0
          5.88308488   -0.23227741    1.67380462    h      1.000     0
          5.88124814   -0.22527950   -1.69043585    h      1.000     0
          6.73126747    4.59143586    0.00952450    o      8.000     0
         -8.16362462   10.16409883    0.01975662    br    35.000     0
         -8.66529234   -0.70004789   -0.02165844    h      1.000     0
        -12.64437485    1.84040408   -0.01422097    h      1.000     0
 
       center of nuclear mass  :   -4.07501519    5.04130508    0.00490295
       center of nuclear charge:   -3.92979598    4.82521793    0.00422825

              +--------------------------------------------------+
              |               basis set information              |
              +--------------------------------------------------+

              we will work with the 1s 3p 5d 7f 9g ... basis set
              ...i.e. with spherical basis functions...

   type   atoms  prim   cont   basis
   ---------------------------------------------------------------------------
    o        2     24     14   def2-SV(P)   [3s2p1d|7s4p1d]
    c       10     24     14   def2-SV(P)   [3s2p1d|7s4p1d]
    s        2     36     18   def2-SV(P)   [4s3p1d|10s7p1d]
    n        2     24     14   def2-SV(P)   [3s2p1d|7s4p1d]
    h        4      4      2   def2-SV(P)   [2s|4s]
    br       1     74     32   def2-SV(P)   [5s4p3d|14s10p6d]
   ---------------------------------------------------------------------------
   total:   21    498    272
   ---------------------------------------------------------------------------

   total number of primitive shells          :   88
   total number of contracted shells         :  120
   total number of cartesian basis functions :  291
   total number of SCF-basis functions       :  272


 integral neglect threshold       :  0.11E-10
 integral storage threshold THIZE :  0.10E-04
 integral storage threshold THIME :         5

 RI-J AUXILIARY BASIS SET information:

              we will work with the 1s 3p 5d 7f 9g ... basis set
              ...i.e. with spherical basis functions...

   type   atoms  prim   cont   basis
   ---------------------------------------------------------------------------
    o        2     70     49   def2-SV(P)   [6s4p3d1f1g|12s5p4d2f1g]
    c       10     70     49   def2-SV(P)   [6s4p3d1f1g|12s5p4d2f1g]
    s        2     77     51   def2-SV(P)   [8s4p3d1f1g|14s5p5d2f1g]
    n        2     70     49   def2-SV(P)   [6s4p3d1f1g|12s5p4d2f1g]
    h        4     16     11   def2-SV(P)   [3s1p1d|5s2p1d]
    br       1     89     58   def2-SV(P)   [8s4p3d2f1g|19s5p5d3f1g]
   ---------------------------------------------------------------------------
   total:   21   1287    890
   ---------------------------------------------------------------------------

   total number of primitive shells          :  140
   total number of contracted shells         :  282
   total number of cartesian basis functions : 1101
   total number of SCF-basis functions       :  890


 symmetry group of the molecule :   c1 

 the group has the following generators :
   c1(z)

    1 symmetry operations found

 there are 1 real representations :   a   

 maximum number of shells which are related by symmetry :  1


    mo occupation :
   irrep   mo's   occupied
    a      272       81
 
 number of basis functions   :                    272
 number of occupied orbitals :                     81
 
  
           ------------------
           density functional
           ------------------
 PBE0 hybrid functional
 exchange:    3/4 (LDA+PBE) + 1/4 HF
 correlation: LDA (PW) + PBE

 iterations will be done with small grid
  
 spherical integration : Lebedev's spherical grid
 spherical gridsize    :                     5
    i.e. gridpoints    :                   590
 value for diffuse not defined
 radial integration    : Chebyshev 2nd kind (scaling 3)
 radial gridsize       :                     8
 integration cells     :                    21
 partition function    : becke
 partition sharpness   :                     3
  

 biggest AO integral is expected to be    21.668154127
  
           ------------------------
               RI-J - INFORMATION
           ------------------------
 Contributions to RI integral batches: 
  neglected integral batches:                  2258
  direct contribution:                            0
  memory contribution:                  5002
 Memory core needed for (P|Q) and Cholesky      7 MByte
 Memory core minimum needed except of (P|Q)     1 MByte
 Total minimum memory core needed (sum)         7 MByte
  
 ****************************************
 Memory allocated for RI-J   249 MByte
 ****************************************
                                            

          ------------------------
          nuclear repulsion energy  :   1710.80745078    
          ------------------------


         -----------------
         -S,T+V- integrals
         -----------------

 1e-integrals will be neglected if expon. factor < 0.114844E-11
 
   Difference densities algorithm switched on.
   The maximal number of linear combinations of
   difference densities is                    20 .

 DIIS switched on: error vector is FDS-SDF
 Max. Iterations for DIIS is     :   4
 DIIS matrix (see manual) 
    Scaling factor of diagonals  :  1.200
    threshold for scaling factor :  0.000

 scf convergence criterion : increment of total energy < .1000000D-06
                  and increment of one-electron energy < .1000000D-03

  MOs are in ASCII format !


 automatic virtual orbital shift switched on 
      shift if e(lumo)-e(homo) < 0.10000000    


 reading orbital data $scfmo  from file mos
 orbital characterization : scfconv=7

 dump of DSCF restart information has been disabled !


 Starting SCF iterations

          Overall gridpoints after grid construction =        122134

 ITERATION  ENERGY          1e-ENERGY        2e-ENERGY     NORM[dD(SAO)]  TOL
   1  -4011.7255425640    -8982.4611931     3259.9281998    0.000D+00 0.115D-10
                            Exc = -172.725509031     Coul =  3488.31251396    
                            exK = -55.6588051605    
                              N = 162.00000496    
                            current damping = 0.700
 
          max. resid. norm for Fia-block=  2.786D-03 for orbital      1a         
          max. resid. fock norm         =  4.434D-03 for orbital      1a         

 ITERATION  ENERGY          1e-ENERGY        2e-ENERGY     NORM[dD(SAO)]  TOL
   2  -4011.7255694286    -8982.4576497     3259.9246295    0.145D-01 0.726D-11
                            Exc = -172.725900221      Eck =  3432.65052969    
                              N = 162.00000495    
                            current damping = 0.650
 
          Norm of current diis error: 0.55988E-02
          max. resid. norm for Fia-block=  1.147D-03 for orbital      1a         
          max. resid. fock norm         =  1.826D-03 for orbital      1a         

 ITERATION  ENERGY          1e-ENERGY        2e-ENERGY     NORM[dD(SAO)]  TOL
   3  -4011.7255742323    -8982.4675892     3259.9345642    0.445D-02 0.562D-11
                            Exc = -172.725696742      Eck =  3432.66026090    
                              N = 162.00000495    
                            current damping = 0.600
 
          Norm of current diis error: 0.37672E-02
          max. resid. norm for Fia-block=  4.521D-04 for orbital      1a         
          max. resid. fock norm         =  7.194D-04 for orbital      1a         

 ITERATION  ENERGY          1e-ENERGY        2e-ENERGY     NORM[dD(SAO)]  TOL
   4  -4011.7255763131    -8982.4599301     3259.9269030    0.168D-02 0.521D-11
                            Exc = -172.725989159      Eck =  3432.65289219    
                              N = 162.00000493    
                            current damping = 0.650
 
          Norm of current diis error: 0.15187E-02
          max. resid. norm for Fia-block=  1.696D-04 for orbital      1a         
          max. resid. fock norm         =  2.751D-04 for orbital    239a         

 ITERATION  ENERGY          1e-ENERGY        2e-ENERGY     NORM[dD(SAO)]  TOL
   5  -4011.7255767183    -8982.4619813     3259.9289538    0.936D-03 0.502D-11
                            Exc = -172.725864021      Eck =  3432.65481783    
                              N = 162.00000494    
                            current damping = 0.700
 
          Norm of current diis error: 0.70381E-03
          max. resid. norm for Fia-block=  6.678D-05 for orbital      1a         
          max. resid. fock norm         =  1.135D-04 for orbital    256a         
          mo-orthogonalization: Cholesky decomposition

 ITERATION  ENERGY          1e-ENERGY        2e-ENERGY     NORM[dD(SAO)]  TOL
   6  -4011.7255770456    -8982.4622344     3259.9292066    0.309D-03 0.487D-11
                            Exc = -172.725886025      Eck =  3432.65509263    
                              N = 162.00000495    
                            current damping = 0.550
 
          Norm of current diis error: 0.24644E-03
          max. resid. norm for Fia-block=  2.750D-05 for orbital      1a         
          max. resid. fock norm         =  4.376D-05 for orbital      1a         

 ENERGY CONVERGED !

          Overall gridpoints after grid construction =        372372

 ITERATION  ENERGY          1e-ENERGY        2e-ENERGY     NORM[dD(SAO)]  TOL
   7  -4011.7255729618    -8982.4622123     3259.9291886    0.140D-03 0.477D-11
                            Exc = -172.725898426      Eck =  3432.65508703    
                              N = 161.99999780    
                            current damping = 0.600
 
          Norm of current diis error: 0.15835E-03
          max. resid. norm for Fia-block=  9.761D-06 for orbital      1a         
          max. resid. fock norm         =  1.622D-05 for orbital    198a         

 End of SCF iterations

   convergence criteria satisfied after     7 iterations


                  ------------------------------------------ 
                 |  total energy      =  -4011.72557296182  |
                  ------------------------------------------ 
                 :  kinetic energy    =   4002.29558660108  :
                 :  potential energy  =  -8014.02115956290  :
                 :  virial theorem    =      1.99764939396  :
                 :  wavefunction norm =      1.00000000000  :
                  .......................................... 


 <geterg> : there is no data group $energy 


 orbitals $scfmo  will be written to file mos

    irrep                 77a         78a         79a         80a         81a   
 eigenvalues H         -0.16879    -0.16292    -0.12876    -0.11981    -0.07401
            eV          -4.5930     -4.4333     -3.5038     -3.2603     -2.0140
 occupation              2.0000      2.0000      2.0000      2.0000      2.0000 

    irrep                 82a         83a         84a         85a         86a   
 eigenvalues H          0.01709     0.10818     0.11875     0.12773     0.13570
            eV           0.4649      2.9437      3.2314      3.4757      3.6926
 
 
 
 
 ==============================================================================
                           electrostatic moments
 ==============================================================================

 reference point for electrostatic moments:    0.00000   0.00000   0.00000

 
              nuc           elec       ->  total
 ------------------------------------------------------------------------------
                          charge      
 ------------------------------------------------------------------------------
         161.000000    -162.000000      -1.000000
 
 ------------------------------------------------------------------------------
                       dipole moment  
 ------------------------------------------------------------------------------
   x    -632.697153     637.743834       5.046681
   y     776.860087    -783.008897      -6.148810
   z       0.680748      -0.690804      -0.010056
 
   | dipole moment | =     7.9547 a.u. =    20.2188 debye 
 
 ------------------------------------------------------------------------------
                     quadrupole moment
 ------------------------------------------------------------------------------
  xx    7672.401995   -7847.011758    -174.609763
  yy    5796.900595   -5933.466303    -136.565708
  zz       5.681893     -98.497730     -92.815837
  xy   -4801.061884    4835.804500      34.742616
  xz      -5.804191       5.824980       0.020790
  yz       9.355961      -9.432406      -0.076445
 
     1/3  trace=    -134.663769
     anisotropy=      92.989197
 
 ==============================================================================
 


    ------------------------------------------------------------------------
         total  cpu-time :  53.68 seconds
         total wall-time :  53.69 seconds
    ------------------------------------------------------------------------

   ****  ridft : all done  ****


    2018-02-09 20:50:23.807 


 egrad (missouri) : TURBOMOLE V7.2 ( 21454 ) 4 Oct 2017 at 12:24:43
 Copyright (C) 2017 TURBOMOLE GmbH, Karlsruhe


    2018-02-09 20:50:23.819 




                               e g r a d

                             TURBOMOLE GmbH


             integral direct evaluation of excited state
                     and polarizability gradients
                 and first-order nonadiabatic couplings



          references (see also programs escf, dscf and ridft) 

          review 
          F. Furche and D. Rappoport,  
          "Density functional methods for excited states: 
          equilibrium structure and electronic spectra",
          ch. III of "Computational Photochemistry", ed. by 
          M. Olivucci, vol. 16 of "Theoretical and Computational 
          Chemistry", Elsevier, Amsterdam, 2005.

          nonorthonormal Krylov space methods 
          F. Furche, B. T. Krull, B. D. Nguyen, J. Kwon, 
          J. Chem. Phys. 144 (2016), 174105.

          RI-J method 
          D. Rappoport and F. Furche, 
          J. Chem. Phys. 122 (2005), 064105.

          Lagrangian method, implementation, benchmarks 
          F. Furche and R. Ahlrichs,
          J. Chem. Phys. 117 (2002), 7433;
          J. Chem. Phys. 121 (2004), 12772 (E).

          Polarizability derivatives, Raman intensities 
          D. Rappoport and F. Furche, 
          J. Chem. Phys. 126 (2007), 201104.

          First-order nonadiabatic couplings 
          R. Send and F. Furche, 
          J. Chem. Phys. 132 (2010), 044107.
                                     




              +--------------------------------------------------+
              | Atomic coordinate, charge and isotop information |
              +--------------------------------------------------+

                    atomic coordinates            atom    charge  isotop
        -12.81667981    6.80536188    0.00823150    o      8.000     0
        -10.87122183    5.50427713    0.00601744    c      6.000     0
         -8.33312924    6.65936110    0.01123443    c      6.000     0
         -6.09464088    5.18635101    0.00453962    c      6.000     0
         -6.19290428    2.52802993   -0.00652586    c      6.000     0
         -8.59350853    1.36860458   -0.01430170    c      6.000     0
        -10.79984464    2.77352683   -0.01067748    c      6.000     0
         -3.01653347    6.22305150    0.00866183    s     16.000     0
         -2.04301339    3.03610702   -0.00066704    c      6.000     0
         -3.86099570    1.35994080   -0.00484398    n      7.000     0
          0.62498202    2.54953809    0.00243751    c      6.000     0
          1.62138594   -0.65625655   -0.00970112    s     16.000     0
          2.37225189    4.30623382    0.00691790    n      7.000     0
          4.78187583    3.37157249    0.00139126    c      6.000     0
          4.85505639    0.44388271   -0.00980816    c      6.000     0
          5.88308488   -0.23227741    1.67380462    h      1.000     0
          5.88124814   -0.22527950   -1.69043585    h      1.000     0
          6.73126747    4.59143586    0.00952450    o      8.000     0
         -8.16362462   10.16409883    0.01975662    br    35.000     0
         -8.66529234   -0.70004789   -0.02165844    h      1.000     0
        -12.64437485    1.84040408   -0.01422097    h      1.000     0
 
       center of nuclear mass  :   -4.07501519    5.04130508    0.00490295
       center of nuclear charge:   -3.92979598    4.82521793    0.00422825

              +--------------------------------------------------+
              |               basis set information              |
              +--------------------------------------------------+

              we will work with the 1s 3p 5d 7f 9g ... basis set
              ...i.e. with spherical basis functions...

   type   atoms  prim   cont   basis
   ---------------------------------------------------------------------------
    o        2     24     14   def2-SV(P)   [3s2p1d|7s4p1d]
    c       10     24     14   def2-SV(P)   [3s2p1d|7s4p1d]
    s        2     36     18   def2-SV(P)   [4s3p1d|10s7p1d]
    n        2     24     14   def2-SV(P)   [3s2p1d|7s4p1d]
    h        4      4      2   def2-SV(P)   [2s|4s]
    br       1     74     32   def2-SV(P)   [5s4p3d|14s10p6d]
   ---------------------------------------------------------------------------
   total:   21    498    272
   ---------------------------------------------------------------------------

   total number of primitive shells          :   88
   total number of contracted shells         :  120
   total number of cartesian basis functions :  291
   total number of SCF-basis functions       :  272


 residuum convergence criterium   :  0.10E-04


 integral neglect threshold       :  0.11E-10
 integral storage threshold THIZE :  0.10E-04
 integral storage threshold THIME :         5

 
             FOUND RI-J FLAG !
 
  
 AUXILIARY BASIS SET information:

              we will work with the 1s 3p 5d 7f 9g ... basis set
              ...i.e. with spherical basis functions...

   type   atoms  prim   cont   basis
   ---------------------------------------------------------------------------
    o        2     70     49   def2-SV(P)   [6s4p3d1f1g|12s5p4d2f1g]
    c       10     70     49   def2-SV(P)   [6s4p3d1f1g|12s5p4d2f1g]
    s        2     77     51   def2-SV(P)   [8s4p3d1f1g|14s5p5d2f1g]
    n        2     70     49   def2-SV(P)   [6s4p3d1f1g|12s5p4d2f1g]
    h        4     16     11   def2-SV(P)   [3s1p1d|5s2p1d]
    br       1     89     58   def2-SV(P)   [8s4p3d2f1g|19s5p5d3f1g]
   ---------------------------------------------------------------------------
   total:   21   1287    890
   ---------------------------------------------------------------------------

   total number of primitive shells          :  140
   total number of contracted shells         :  282
   total number of cartesian basis functions : 1101
   total number of SCF-basis functions       :  890

 RPA SINGLET-EXCITATION-CALCULATION 
 
             FOUND DFT-FLAG !
 

 symmetry group of the molecule :   c1 

 the group has the following generators :
   c1(z)

    1 symmetry operations found

 there are 1 real representations :   a   

 maximum number of shells which are related by symmetry :  1

 IRREP of excited state :   a   
 

 determining totally symmetric integral contributions 
    - equivalent to irreducible tensor elements - 
 which can be formed within each triple of representations :

             representation triple      contributions

              a     a     a               1

    mo occupation :
   irrep   mo's   occupied
    a      272       81
 
 number of basis functions   :                    272
 number of occupied orbitals :                     81
 
  
           ------------------
           density functional
           ------------------
 PBE0 hybrid functional
 exchange:    3/4 (LDA+PBE) + 1/4 HF
 correlation: LDA (PW) + PBE

 iterations will be done with small grid
  
 spherical integration : Lebedev's spherical grid
 spherical gridsize    :                     5
    i.e. gridpoints    :                   590
 value for diffuse not defined
 radial integration    : Chebyshev 2nd kind (scaling 3)
 radial gridsize       :                     8
 integration cells     :                    21
 partition function    : becke
 partition sharpness   :                     3
  
  
           ----------------------
               RI - INFORMATION
           ----------------------

 biggest AO integral is expected to be    21.668154127

 Threshold for integral neglect (rithr2):   0.11E-10
 Threshold for integral neglect (rithr1):   0.11E-10

 Contributions to RI integral batches: 
  neglected integral batches:                  2114
  direct contribution:                            0
  memory contribution:                  5146
 Core memory available (ricore)            5000 MiB
 Core memory needed for (P|Q) and Cholesky 7 MiB
 Core memory used for integrals            250 MiB
  
 ****************************************
 Memory allocated for RIDFT 257 MiB
 ****************************************
                                            
  MOs are in ASCII format !


 reading orbital data $scfmo  from file mos
 orbital characterization : scfconv=7
 preparing numerical integration ....
          Overall gridpoints after grid construction =        122134

 Calculating ground state density on molecular grid

 Integral of ground state density: N =   162.0000049528750    



 number of non-frozen orbitals          :   272
 number of non-frozen occupied orbitals :    81



                        -------------------
                         excitation vector 
                        -------------------


 dimension of super-tensorspace: 2

          IRREP   tensor space dimension   number of roots

           a             15471                   1

 maximum number of Davidson iterations set to   25


 machine precision: 2.22D-16


 logfile sing_a    will be constructed


                       Nonorthonormal Krylov Space Iteration


 total number of roots to be determined:   1


 maximum core memory set to  5000 MB,
 corresponding to     3796 vectors in CAO basis


 maximum number of simultaneously treated vectors (including degeneracy):        2


 Iteration IRREP Converged      Max. Euclidean
                 roots          residual norm

    1       a        0        3.099893456144628D-02
 
    2       a        0        8.478616198387084D-02
 
    3       a        0        4.095850194123551D-02
 
    4       a        0        1.738713868364242D-02
 
    5       a        0        6.424899794611496D-03
 
    6       a        0        2.882769453149749D-03
 
    7       a        0        1.394980287144350D-03
 
    8       a        0        5.999468186842639D-04
 
    9       a        0        2.666730580700881D-04
 
   10       a        0        1.020151512966333D-04
 
   11       a        0        5.647621526411620D-05
 
   12       a        0        1.672691530307111D-05
 
   13       a        1        7.401618055114796D-06
 

 converged!


 Switching to fine grid

 preparing numerical integration ....
          Overall gridpoints after grid construction =        372372

 Calculating ground state density on molecular grid

 Integral of ground state density: N =   161.9999978027812    



 Iteration IRREP Converged      Max. Euclidean
                 roots          residual norm

   14       a        1        9.827123707734560D-06
 

 converged!

 Eigenpairs written on logfile sing_a   



 IRREP   Vector     Eigenvalue           Euclidean residual norm

  a         1    8.338539530096729D-02    9.827123707734560D-06
 




                    Selection rules for point group c1  


 Subduction with respect to c1  :

    Polar vector representation: a                           

    Axial vector representation: a                           

    Symmetric second rank tensor representation: a                           




                            Ground state


 Total energy:                           -4011.725572962000    

 Charge:

               elec          nuc         total

          -162.000000   161.000000    -1.000000


 Electric dipole moment:

               elec          nuc         total   

    x      637.743834  -632.697153     5.046681    Norm:              7.954682
    y     -783.008897   776.860087    -6.148810
    z       -0.690804     0.680748    -0.010056    Norm / debye:     20.218937


 Electric quadrupole moment:

               elec          nuc         total   

   xx    -7847.011758  7672.401995  -174.609763
   yy    -5933.466303  5796.900595  -136.565708    1/3*trace:      -134.663769
   zz      -98.497730     5.681893   -92.815837
   xy     4835.804500 -4801.061884    34.742616
   xz        5.824980    -5.804191     0.020790    Anisotropy:       92.989197
   yz       -9.432406     9.355961    -0.076445



 ==============================================================================

                              I R R E P   a   

 ==============================================================================


 Excitation is electric dipole allowed

 Excitation is magnetic dipole allowed

 Excitation is electric quadrupole allowed




                         1 singlet a excitation


 Total energy:                           -4011.642187566699    

 Excitation energy:                      0.8338539530096729E-01

 Excitation energy / eV:                  2.269033026326678    

 Excitation energy / nm:                  546.4188602278108    

 Excitation energy / cm^(-1):             18300.97883945331    


 Oscillator strength:

    velocity representation:             0.3079593448148690    

    length representation:               0.3591895562245456    

    mixed representation:                0.3325839996713854    


 Rotatory strength:

    velocity representation:             0.8533641999226121E-05

    velocity rep. / 10^(-40)erg*cm^3:    0.5513143746366678    

    length representation:               0.9033624846072060E-05

    length rep. / 10^(-40)erg*cm^3:      0.5836156746634238    


 Dominant contributions:

      occ. orbital   energy / eV   virt. orbital     energy / eV   |coeff.|^2*100
       81 a              -2.01          82 a               0.46       91.6
 

 Change of electron number:

            -0.000000


 Electric transition dipole moment (velocity rep.):

    x        2.313274        Norm:                  2.353680
    y       -0.434247
    z       -0.000094        Norm / debye:          5.982502


 Electric transition dipole moment (length rep.):

    x        2.495546        Norm:                  2.541924
    y       -0.483346
    z        0.000119        Norm / debye:          6.460974


 Magnetic transition dipole moment / i:

    x        0.000003        Norm:                  0.001092
    y       -0.000005
    z       -0.001092        Norm / Bohr mag.:      0.299419


 Electric quadrupole transition moment:

   xx      -18.760955
   yy       -4.454223        1/3*trace:            -7.701729
   zz        0.109991
   xy       11.270696
   xz        0.003929        Anisotropy:           25.921024
   yz       -0.005364
 

 Excited state no.    1 chosen for optimization


                       ----------------------
                        CPKS right-hand side 
                       ----------------------


          IRREP   tensor space dimension   number of roots

           a             15471                   1

                          ----------------
                           CPKS equations 
                          ----------------


 logfile dipl_a    will be constructed

 Switching to coarse grid

 preparing numerical integration ....
          Overall gridpoints after grid construction =        122134


                       Nonorthonormal Krylov Space Iteration


 total number of roots to be determined:   1


 maximum core memory set to  5000 MB,
 corresponding to     7544 vectors in CAO basis


 maximum number of simultaneously treated vectors (including degeneracy):        1


 Iteration IRREP Converged      Max. Euclidean
                 roots          residual norm

    1       a        0        1.085545499730132D-01
 
    2       a        0        4.843951647059332D-02
 
    3       a        0        2.228610425396582D-02
 
    4       a        0        9.426228471970343D-03
 
    5       a        0        3.549356964160498D-03
 
    6       a        0        1.238427883070141D-03
 
    7       a        0        4.763115236019885D-04
 
    8       a        0        1.638641648153524D-04
 
    9       a        0        8.225894526288066D-05
 
   10       a        0        1.915062541105971D-05
 
   11       a        1        8.123237690533002D-06
 

 converged!


 Switching to fine grid

 preparing numerical integration ....
          Overall gridpoints after grid construction =        372372

 Iteration IRREP Converged      Max. Euclidean
                 roots          residual norm

   12       a        0        1.627877983752172D-05
 

 NOTE: Residual norms are larger than 1.00D-05 due to mgrid option!

 Eigenpairs written on logfile dipl_a   



 IRREP   Vector     Frequency            Euclidean residual norm

  a         1    0.000000000000000D+00    1.627877983752172D-05
 

                          -------------------
                           relaxed densities 
                          -------------------


    ----------------------------------------
     S+T+V CONTRIBUTIONS TO ENERGY GRADIENT 
    ----------------------------------------

 1e-integral 1st. derivatives will be neglected if expon. factor < 0.100000E-10


    -----------------------------------------------
     TWO ELECTRON CONTRIBUTIONS TO ENERGY GRADIENT 
    -----------------------------------------------

 setting up bound for integral derivative estimation

 increment for numerical differentiation : 0.00050000

 biggest AO integral is expected to be    21.668154127
 biggest cartesian 1st derivative AO integral is expected to be    83.347447328

 biggest 1-particle AO density matrix element is expected to be    3.2069961630

 core memory to be involved in 2e-gradient :
   symmetry shell pair data              :         1
   two particle density+dens. estimates  :      8556
   derivative integrals                  :      8498
   derivative integral bound             :     21780
   totally                               :     30276


 setting up bound for integral derivative estimation

 increment for numerical differentiation : 0.00050000

 biggest AO integral is expected to be    21.668154127
 biggest cartesian 1st derivative AO integral is expected to be    83.347447328

 2e-integral 1st. derivatives will be neglected if expon. factor < 0.100000E-06
 outer boundary for 2e-integral derivative neglection is 0.162051E-08

 Integrated ground state density     :   161.9999978027802    


          ------------------------------------------------
           cartesian gradient of the energy (hartree/bohr)
          ------------------------------------------------

  ATOM      1 o           2 c           3 c           4 c           5 c 
dE/dx -0.8758657D-03 -0.3754814D-04 -0.8686421D-03  0.1501684D-02  0.1813223D-02
dE/dy  0.6865417D-03 -0.1107981D-02 -0.1337495D-03 -0.1959001D-02 -0.7485487D-03
dE/dz -0.1695337D-03  0.4605554D-03  0.3297456D-04  0.5512561D-04 -0.1853338D-03

  ATOM      6 c           7 c           8 s           9 c          10 n 
dE/dx  0.1242542D-02 -0.7699534D-04  0.2166452D-03 -0.6020214D-03 -0.2890402D-02
dE/dy -0.4876677D-03  0.1621463D-02  0.7563060D-03  0.9788360D-03  0.5847719D-03
dE/dz -0.6388678D-04 -0.3171322D-03 -0.2103539D-04 -0.2836583D-03  0.2581763D-03

  ATOM     11 c          12 s          13 n          14 c          15 c 
dE/dx -0.1439524D-02 -0.4545946D-03  0.1947669D-03  0.2614722D-02  0.2161864D-02
dE/dy -0.5053280D-03 -0.4660663D-03  0.1675841D-03  0.4604695D-03  0.2692824D-03
dE/dz  0.2456625D-03  0.6300359D-04  0.3495647D-04 -0.1963765D-03 -0.1718240D-02

  ATOM     16 h          17 h          18 o          19 br         20 h 
dE/dx -0.2385669D-03 -0.1091195D-02 -0.1431954D-02  0.6450366D-04  0.1394543D-03
dE/dy  0.1365368D-03  0.6230784D-03 -0.1058325D-02  0.1914693D-03 -0.1989569D-03
dE/dz -0.3387931D-03  0.1915484D-02  0.1324828D-03 -0.3203512D-04  0.4840975D-04

  ATOM     21 h 
dE/dx  0.4572985D-04
dE/dy  0.1755645D-03
dE/dz  0.7904202D-04
 
 resulting FORCE  (fx,fy,fz) = (-.122D-04,-.137D-04,-.151D-06)
 resulting MOMENT (mx,my,mz) = (0.294D-05,0.376D-05,0.882D-04)


 **********************************************************************
  |maximum component of gradient| : 0.28904018E-02  (atom 10 n )       
   gradient norm                  : 0.74298537E-02
 **********************************************************************

 exx =       0.002432 eyy =      -0.003278 ezz =      -0.003784
 eyz =      -0.000839 exz =       0.001389 exy =      -0.000848


 <getgrd> : data group $grad  is missing 

   ***  cartesian gradients written onto <gradient>  ***
 
 
 
 ==============================================================================
                           electrostatic moments
 ==============================================================================

 reference point for electrostatic moments:    0.00000   0.00000   0.00000

 
              nuc           gs,e       ->  gs,tot          excit     ->  total
 ------------------------------------------------------------------------------
                          charge      
 ------------------------------------------------------------------------------
         161.000000    -162.000000      -1.000000       0.000000      -1.000000
 
 ------------------------------------------------------------------------------
                       dipole moment  
 ------------------------------------------------------------------------------
   x    -632.697153     637.743834       5.046681      -1.248229       3.798453
   y     776.860087    -783.008897      -6.148810       1.272737      -4.876073
   z       0.680748      -0.690804      -0.010056       0.003624      -0.006432
 
   | dipole moment | =     6.1810 a.u. =    15.7105 debye 
 
 ------------------------------------------------------------------------------
                     quadrupole moment
 ------------------------------------------------------------------------------
  xx    7672.401995   -7847.011758    -174.609763       2.099230    -172.510533
  yy    5796.900595   -5933.466303    -136.565708      13.600814    -122.964893
  zz       5.681893     -98.497730     -92.815837       0.200206     -92.615631
  xy   -4801.061884    4835.804500      34.742616     -12.156299      22.586317
  xz      -5.804191       5.824980       0.020790      -0.032846      -0.012056
  yz       9.355961      -9.432406      -0.076445       0.027915      -0.048530
 
     1/3  trace=    -129.363686
     anisotropy=      80.062191
 
 ==============================================================================
 


    ------------------------------------------------------------------------
         total  cpu-time :  5 minutes and 39 seconds
         total wall-time :  5 minutes and 39 seconds
    ------------------------------------------------------------------------

   ****  egrad : all done  ****


    2018-02-09 20:56:02.626 

$dipole from egrad
  x     3.79845257503075    y    -4.87607295006387    z    -0.00643221815414    a.u.
   | dipole | =   15.7105734286  debye
/work/bdnguye2/luc_project/7_brluc/ex_geo_opt/save/numforce/KraftWerk/p078
