 operating system is UNIX !

 ridft (missouri) : TURBOMOLE V7.2 ( 21454 ) 4 Oct 2017 at 12:48:15
 Copyright (C) 2017 TURBOMOLE GmbH, Karlsruhe


    2018-02-09 20:56:02.666 



                                  r i d f t

                        DFT program with RI approximation 
                                for coulomb part 




                                                 
                                 References:     
                                                 
          TURBOMOLE:                             
              R. Ahlrichs, M. Baer, M. Haeser, H. Horn, and
              C. Koelmel
              Electronic structure calculations on workstation
              computers: the program system TURBOMOLE
              Chem. Phys. Lett. 162: 165 (1989)
          Density Functional:                              
              O. Treutler and R. Ahlrichs                      
              Efficient Molecular Numerical Integration Schemes
              J. Chem. Phys. 102: 346 (1995)                   
          Parallel Version:                                
              Performance of parallel TURBOMOLE for Density    
              Functional Calculations                          
              M. v. Arnim and R. Ahlrichs                      
              J. Comp. Chem. 19: 1746 (1998)                   
          RI-J Method:                                     
              Auxiliary Basis Sets to approximate Coulomb      
              Potentials                                       
              Chem. Phys. Lett. 240: 283 (1995)                
              K. Eichkorn, O. Treutler, H. Oehm, M. Haeser     
              and R. Ahlrichs                                  
              Chem. Phys. Lett. 242: 652 (1995)                
                                                           
              Auxiliary Basis Sets for Main Row Atoms and their
              Use to approximate Coulomb Potentials            
              K. Eichkorn, F. Weigend, O. Treutler and         
              R. Ahlrichs                                      
              Theo. Chem. Acc. 97: 119 (1997)                   
                                                           
              Accurate Coulomb-fitting basis sets for H to Rn 
              F. Weigend                                        
              Phys. Chem. Chem. Phys. 8: 1057 (2006)            
                                                           
          Multipole accelerated RI-J (MARI-J):             
              Fast evaluation of the Coulomb potential for     
              electron densities using multipole accelerated   
              resolution of identity approximation             
              M. Sierka, A. Hogekamp and R. Ahlrichs           
              J. Chem. Phys. 118: 9136 (2003)                  
          RI-JK Method:                                     
              A fully direct RI-HF algorithm: Implementation,
              optimised auxiliary basis sets, demonstration of
              accuracy and efficiency                         
              F. Weigend                                      
              Phys. Chem. Chem. Phys. 4: 4285 (2002)           
          Two-component HF and DFT with spin-orbit coupling:  
              Self-consistent treatment of spin-orbit         
              interactions with efficient Hartree-Fock and    
              density functional methods                      
              M. K. Armbruster, F. Weigend, C. van Wüllen and 
              W. Klopper                                      
              Phys. Chem. Chem. Phys. 10: 1748 (2008)         
          Relativistic all-electron 2c calculations           
              An efficient implementation of two-component    
              relativistic exact-decoupling methods for large 
              molecules                                       
              D. Peng, N. Middendorf, F. Weigend, M. Reiher   
              J. Chem. Phys. 138, 184105 (2013)               
                                         




              +--------------------------------------------------+
              |      general information about current run       |
              +--------------------------------------------------+

 
 PBE0 hybrid functional
 exchange:    3/4 (LDA+PBE) + 1/4 HF
 correlation: LDA (PW) + PBE
 A Hybrid-DFT calculation using the RI-J approximation will be carried out.
 Allocatable memory for RI due to $ricore (MB):                  5000


              +--------------------------------------------------+
              | Atomic coordinate, charge and isotop information |
              +--------------------------------------------------+

                    atomic coordinates            atom    charge  isotop
        -12.81660783    6.80557867    0.00767021    o      8.000     0
        -10.87161336    5.50541401    0.00598098    c      6.000     0
         -8.33436915    6.66034989    0.01174880    c      6.000     0
         -6.09660238    5.18727469    0.00682114    c      6.000     0
         -6.19537127    2.52653443   -0.00324459    c      6.000     0
         -8.59382507    1.36586957   -0.01181784    c      6.000     0
        -10.79906520    2.76952457   -0.00874948    c      6.000     0
         -3.01252993    6.21880339    0.00644560    s     16.000     0
         -2.03795936    3.03528992   -0.00444237    c      6.000     0
         -3.85709736    1.36067119   -0.01050873    n      7.000     0
          0.62791309    2.55474250   -0.00324087    c      6.000     0
          1.61887229   -0.64999636   -0.01112997    s     16.000     0
          2.36796962    4.31126401    0.00735126    n      7.000     0
          4.77512584    3.37533334    0.00716894    c      6.000     0
          4.84849130    0.44146670   -0.00303186    c      6.000     0
          5.88107371   -0.23653137    1.67950453    h      1.000     0
          5.88088219   -0.22500639   -1.69017654    h      1.000     0
          6.73039376    4.59190638    0.01080305    o      8.000     0
         -8.16513971   10.16311262    0.02199777    br    35.000     0
         -8.66543623   -0.70208439   -0.01992474    h      1.000     0
        -12.64368675    1.83738933   -0.00918144    h      1.000     0
 
       center of nuclear mass  :   -4.07569953    5.04153323    0.00543932
       center of nuclear charge:   -3.93045242    4.82545246    0.00474556

              +--------------------------------------------------+
              |               basis set information              |
              +--------------------------------------------------+

              we will work with the 1s 3p 5d 7f 9g ... basis set
              ...i.e. with spherical basis functions...

   type   atoms  prim   cont   basis
   ---------------------------------------------------------------------------
    o        2     24     14   def2-SV(P)   [3s2p1d|7s4p1d]
    c       10     24     14   def2-SV(P)   [3s2p1d|7s4p1d]
    s        2     36     18   def2-SV(P)   [4s3p1d|10s7p1d]
    n        2     24     14   def2-SV(P)   [3s2p1d|7s4p1d]
    h        4      4      2   def2-SV(P)   [2s|4s]
    br       1     74     32   def2-SV(P)   [5s4p3d|14s10p6d]
   ---------------------------------------------------------------------------
   total:   21    498    272
   ---------------------------------------------------------------------------

   total number of primitive shells          :   88
   total number of contracted shells         :  120
   total number of cartesian basis functions :  291
   total number of SCF-basis functions       :  272


 integral neglect threshold       :  0.11E-10
 integral storage threshold THIZE :  0.10E-04
 integral storage threshold THIME :         5

 RI-J AUXILIARY BASIS SET information:

              we will work with the 1s 3p 5d 7f 9g ... basis set
              ...i.e. with spherical basis functions...

   type   atoms  prim   cont   basis
   ---------------------------------------------------------------------------
    o        2     70     49   def2-SV(P)   [6s4p3d1f1g|12s5p4d2f1g]
    c       10     70     49   def2-SV(P)   [6s4p3d1f1g|12s5p4d2f1g]
    s        2     77     51   def2-SV(P)   [8s4p3d1f1g|14s5p5d2f1g]
    n        2     70     49   def2-SV(P)   [6s4p3d1f1g|12s5p4d2f1g]
    h        4     16     11   def2-SV(P)   [3s1p1d|5s2p1d]
    br       1     89     58   def2-SV(P)   [8s4p3d2f1g|19s5p5d3f1g]
   ---------------------------------------------------------------------------
   total:   21   1287    890
   ---------------------------------------------------------------------------

   total number of primitive shells          :  140
   total number of contracted shells         :  282
   total number of cartesian basis functions : 1101
   total number of SCF-basis functions       :  890


 symmetry group of the molecule :   c1 

 the group has the following generators :
   c1(z)

    1 symmetry operations found

 there are 1 real representations :   a   

 maximum number of shells which are related by symmetry :  1


    mo occupation :
   irrep   mo's   occupied
    a      272       81
 
 number of basis functions   :                    272
 number of occupied orbitals :                     81
 
  
           ------------------
           density functional
           ------------------
 PBE0 hybrid functional
 exchange:    3/4 (LDA+PBE) + 1/4 HF
 correlation: LDA (PW) + PBE

 iterations will be done with small grid
  
 spherical integration : Lebedev's spherical grid
 spherical gridsize    :                     5
    i.e. gridpoints    :                   590
 value for diffuse not defined
 radial integration    : Chebyshev 2nd kind (scaling 3)
 radial gridsize       :                     8
 integration cells     :                    21
 partition function    : becke
 partition sharpness   :                     3
  

 biggest AO integral is expected to be    21.668154127
  
           ------------------------
               RI-J - INFORMATION
           ------------------------
 Contributions to RI integral batches: 
  neglected integral batches:                  2258
  direct contribution:                            0
  memory contribution:                  5002
 Memory core needed for (P|Q) and Cholesky      7 MByte
 Memory core minimum needed except of (P|Q)     1 MByte
 Total minimum memory core needed (sum)         7 MByte
  
 ****************************************
 Memory allocated for RI-J   249 MByte
 ****************************************
                                            

          ------------------------
          nuclear repulsion energy  :   1711.04391941    
          ------------------------


         -----------------
         -S,T+V- integrals
         -----------------

 1e-integrals will be neglected if expon. factor < 0.114844E-11
 
   Difference densities algorithm switched on.
   The maximal number of linear combinations of
   difference densities is                    20 .

 DIIS switched on: error vector is FDS-SDF
 Max. Iterations for DIIS is     :   4
 DIIS matrix (see manual) 
    Scaling factor of diagonals  :  1.200
    threshold for scaling factor :  0.000

 scf convergence criterion : increment of total energy < .1000000D-06
                  and increment of one-electron energy < .1000000D-03

  MOs are in ASCII format !


 automatic virtual orbital shift switched on 
      shift if e(lumo)-e(homo) < 0.10000000    


 reading orbital data $scfmo  from file mos
 orbital characterization : scfconv=7

 dump of DSCF restart information has been disabled !


 Starting SCF iterations

          Overall gridpoints after grid construction =        122132

 ITERATION  ENERGY          1e-ENERGY        2e-ENERGY     NORM[dD(SAO)]  TOL
   1  -4011.7255480949    -8982.9351426     3260.1656751    0.000D+00 0.115D-10
                            Exc = -172.725228700     Coul =  3488.54958965    
                            exK = -55.6586858239    
                              N = 162.00000352    
                            current damping = 0.700
 
          max. resid. norm for Fia-block=  2.721D-03 for orbital      1a         
          max. resid. fock norm         =  4.234D-03 for orbital      1a         

 ITERATION  ENERGY          1e-ENERGY        2e-ENERGY     NORM[dD(SAO)]  TOL
   2  -4011.7255671991    -8982.9367457     3260.1672591    0.129D-01 0.726D-11
                            Exc = -172.725371360      Eck =  3432.89263045    
                              N = 162.00000354    
                            current damping = 0.650
 
          Norm of current diis error: 0.54660E-02
          max. resid. norm for Fia-block=  1.121D-03 for orbital      1a         
          max. resid. fock norm         =  1.743D-03 for orbital      1a         

 ITERATION  ENERGY          1e-ENERGY        2e-ENERGY     NORM[dD(SAO)]  TOL
   3  -4011.7255700056    -8982.9331632     3260.1636738    0.555D-02 0.574D-11
                            Exc = -172.725208388      Eck =  3432.88888217    
                              N = 162.00000351    
                            current damping = 0.600
 
          Norm of current diis error: 0.42284E-02
          max. resid. norm for Fia-block=  4.415D-04 for orbital      1a         
          max. resid. fock norm         =  6.869D-04 for orbital      1a         

 ITERATION  ENERGY          1e-ENERGY        2e-ENERGY     NORM[dD(SAO)]  TOL
   4  -4011.7255726423    -8982.9356688     3260.1661768    0.167D-02 0.526D-11
                            Exc = -172.725195758      Eck =  3432.89137255    
                              N = 162.00000354    
                            current damping = 0.650
 
          Norm of current diis error: 0.14346E-02
          max. resid. norm for Fia-block=  1.656D-04 for orbital      1a         
          max. resid. fock norm         =  2.647D-04 for orbital    241a         

 ITERATION  ENERGY          1e-ENERGY        2e-ENERGY     NORM[dD(SAO)]  TOL
   5  -4011.7255729569    -8982.9342824     3260.1647900    0.833D-03 0.511D-11
                            Exc = -172.725316396      Eck =  3432.89010644    
                              N = 162.00000353    
                            current damping = 0.700
 
          Norm of current diis error: 0.65213E-03
          max. resid. norm for Fia-block=  6.523D-05 for orbital      1a         
          max. resid. fock norm         =  1.015D-04 for orbital      1a         
          mo-orthogonalization: Cholesky decomposition

 ITERATION  ENERGY          1e-ENERGY        2e-ENERGY     NORM[dD(SAO)]  TOL
   6  -4011.7255732692    -8982.9352080     3260.1657153    0.315D-03 0.494D-11
                            Exc = -172.725242526      Eck =  3432.89095787    
                              N = 162.00000355    
                            current damping = 0.750
 
          Norm of current diis error: 0.22561E-03
          max. resid. norm for Fia-block=  2.686D-05 for orbital      1a         
          max. resid. fock norm         =  4.291D-05 for orbital    263a         

 ITERATION  ENERGY          1e-ENERGY        2e-ENERGY     NORM[dD(SAO)]  TOL
   7  -4011.7255732776    -8982.9346478     3260.1651551    0.107D-03 0.485D-11
                            Exc = -172.725260657      Eck =  3432.89041579    
                              N = 162.00000355    
                            current damping = 0.800
 
          Norm of current diis error: 0.14038E-03
          max. resid. norm for Fia-block=  1.151D-05 for orbital      1a         
          max. resid. fock norm         =  1.791D-05 for orbital      1a         

 ENERGY CONVERGED !

          Overall gridpoints after grid construction =        372373

 ITERATION  ENERGY          1e-ENERGY        2e-ENERGY     NORM[dD(SAO)]  TOL
   8  -4011.7255703554    -8982.9348447     3260.1653549    0.249D-04 0.473D-11
                            Exc = -172.725252789      Eck =  3432.89060769    
                              N = 161.99999770    
                            current damping = 0.850
 
          Norm of current diis error: 0.68347E-04
          max. resid. norm for Fia-block=  5.116D-06 for orbital      1a         
          max. resid. fock norm         =  1.113D-05 for orbital    241a         

 End of SCF iterations

   convergence criteria satisfied after     8 iterations


                  ------------------------------------------ 
                 |  total energy      =  -4011.72557035542  |
                  ------------------------------------------ 
                 :  kinetic energy    =   4002.29241356791  :
                 :  potential energy  =  -8014.01798392333  :
                 :  virial theorem    =      1.99764860367  :
                 :  wavefunction norm =      1.00000000000  :
                  .......................................... 


 <geterg> : there is no data group $energy 


 orbitals $scfmo  will be written to file mos

    irrep                 77a         78a         79a         80a         81a   
 eigenvalues H         -0.16866    -0.16304    -0.12883    -0.11994    -0.07403
            eV          -4.5896     -4.4365     -3.5056     -3.2638     -2.0144
 occupation              2.0000      2.0000      2.0000      2.0000      2.0000 

    irrep                 82a         83a         84a         85a         86a   
 eigenvalues H          0.01707     0.10827     0.11866     0.12842     0.13599
            eV           0.4644      2.9463      3.2289      3.4945      3.7005
 
 
 
 
 ==============================================================================
                           electrostatic moments
 ==============================================================================

 reference point for electrostatic moments:    0.00000   0.00000   0.00000

 
              nuc           elec       ->  total
 ------------------------------------------------------------------------------
                          charge      
 ------------------------------------------------------------------------------
         161.000000    -162.000000      -1.000000
 
 ------------------------------------------------------------------------------
                       dipole moment  
 ------------------------------------------------------------------------------
   x    -632.802839     637.844779       5.041939
   y     776.897846    -783.046112      -6.148266
   z       0.764035      -0.772154      -0.008119
 
   | dipole moment | =     7.9513 a.u. =    20.2101 debye 
 
 ------------------------------------------------------------------------------
                     quadrupole moment
 ------------------------------------------------------------------------------
  xx    7671.809478   -7846.413308    -174.603830
  yy    5795.848913   -5932.410065    -136.561152
  zz       5.703280     -98.518707     -92.815427
  xy   -4800.348278    4835.064735      34.716457
  xz      -6.229346       6.251537       0.022191
  yz      10.092794     -10.171660      -0.078866
 
     1/3  trace=    -134.660137
     anisotropy=      92.956203
 
 ==============================================================================
 


    ------------------------------------------------------------------------
         total  cpu-time :  1 minutes and  4 seconds
         total wall-time :  1 minutes and  4 seconds
    ------------------------------------------------------------------------

   ****  ridft : all done  ****


    2018-02-09 20:57:06.845 


 egrad (missouri) : TURBOMOLE V7.2 ( 21454 ) 4 Oct 2017 at 12:24:43
 Copyright (C) 2017 TURBOMOLE GmbH, Karlsruhe


    2018-02-09 20:57:06.867 




                               e g r a d

                             TURBOMOLE GmbH


             integral direct evaluation of excited state
                     and polarizability gradients
                 and first-order nonadiabatic couplings



          references (see also programs escf, dscf and ridft) 

          review 
          F. Furche and D. Rappoport,  
          "Density functional methods for excited states: 
          equilibrium structure and electronic spectra",
          ch. III of "Computational Photochemistry", ed. by 
          M. Olivucci, vol. 16 of "Theoretical and Computational 
          Chemistry", Elsevier, Amsterdam, 2005.

          nonorthonormal Krylov space methods 
          F. Furche, B. T. Krull, B. D. Nguyen, J. Kwon, 
          J. Chem. Phys. 144 (2016), 174105.

          RI-J method 
          D. Rappoport and F. Furche, 
          J. Chem. Phys. 122 (2005), 064105.

          Lagrangian method, implementation, benchmarks 
          F. Furche and R. Ahlrichs,
          J. Chem. Phys. 117 (2002), 7433;
          J. Chem. Phys. 121 (2004), 12772 (E).

          Polarizability derivatives, Raman intensities 
          D. Rappoport and F. Furche, 
          J. Chem. Phys. 126 (2007), 201104.

          First-order nonadiabatic couplings 
          R. Send and F. Furche, 
          J. Chem. Phys. 132 (2010), 044107.
                                     




              +--------------------------------------------------+
              | Atomic coordinate, charge and isotop information |
              +--------------------------------------------------+

                    atomic coordinates            atom    charge  isotop
        -12.81660783    6.80557867    0.00767021    o      8.000     0
        -10.87161336    5.50541401    0.00598098    c      6.000     0
         -8.33436915    6.66034989    0.01174880    c      6.000     0
         -6.09660238    5.18727469    0.00682114    c      6.000     0
         -6.19537127    2.52653443   -0.00324459    c      6.000     0
         -8.59382507    1.36586957   -0.01181784    c      6.000     0
        -10.79906520    2.76952457   -0.00874948    c      6.000     0
         -3.01252993    6.21880339    0.00644560    s     16.000     0
         -2.03795936    3.03528992   -0.00444237    c      6.000     0
         -3.85709736    1.36067119   -0.01050873    n      7.000     0
          0.62791309    2.55474250   -0.00324087    c      6.000     0
          1.61887229   -0.64999636   -0.01112997    s     16.000     0
          2.36796962    4.31126401    0.00735126    n      7.000     0
          4.77512584    3.37533334    0.00716894    c      6.000     0
          4.84849130    0.44146670   -0.00303186    c      6.000     0
          5.88107371   -0.23653137    1.67950453    h      1.000     0
          5.88088219   -0.22500639   -1.69017654    h      1.000     0
          6.73039376    4.59190638    0.01080305    o      8.000     0
         -8.16513971   10.16311262    0.02199777    br    35.000     0
         -8.66543623   -0.70208439   -0.01992474    h      1.000     0
        -12.64368675    1.83738933   -0.00918144    h      1.000     0
 
       center of nuclear mass  :   -4.07569953    5.04153323    0.00543932
       center of nuclear charge:   -3.93045242    4.82545246    0.00474556

              +--------------------------------------------------+
              |               basis set information              |
              +--------------------------------------------------+

              we will work with the 1s 3p 5d 7f 9g ... basis set
              ...i.e. with spherical basis functions...

   type   atoms  prim   cont   basis
   ---------------------------------------------------------------------------
    o        2     24     14   def2-SV(P)   [3s2p1d|7s4p1d]
    c       10     24     14   def2-SV(P)   [3s2p1d|7s4p1d]
    s        2     36     18   def2-SV(P)   [4s3p1d|10s7p1d]
    n        2     24     14   def2-SV(P)   [3s2p1d|7s4p1d]
    h        4      4      2   def2-SV(P)   [2s|4s]
    br       1     74     32   def2-SV(P)   [5s4p3d|14s10p6d]
   ---------------------------------------------------------------------------
   total:   21    498    272
   ---------------------------------------------------------------------------

   total number of primitive shells          :   88
   total number of contracted shells         :  120
   total number of cartesian basis functions :  291
   total number of SCF-basis functions       :  272


 residuum convergence criterium   :  0.10E-04


 integral neglect threshold       :  0.11E-10
 integral storage threshold THIZE :  0.10E-04
 integral storage threshold THIME :         5

 
             FOUND RI-J FLAG !
 
  
 AUXILIARY BASIS SET information:

              we will work with the 1s 3p 5d 7f 9g ... basis set
              ...i.e. with spherical basis functions...

   type   atoms  prim   cont   basis
   ---------------------------------------------------------------------------
    o        2     70     49   def2-SV(P)   [6s4p3d1f1g|12s5p4d2f1g]
    c       10     70     49   def2-SV(P)   [6s4p3d1f1g|12s5p4d2f1g]
    s        2     77     51   def2-SV(P)   [8s4p3d1f1g|14s5p5d2f1g]
    n        2     70     49   def2-SV(P)   [6s4p3d1f1g|12s5p4d2f1g]
    h        4     16     11   def2-SV(P)   [3s1p1d|5s2p1d]
    br       1     89     58   def2-SV(P)   [8s4p3d2f1g|19s5p5d3f1g]
   ---------------------------------------------------------------------------
   total:   21   1287    890
   ---------------------------------------------------------------------------

   total number of primitive shells          :  140
   total number of contracted shells         :  282
   total number of cartesian basis functions : 1101
   total number of SCF-basis functions       :  890

 RPA SINGLET-EXCITATION-CALCULATION 
 
             FOUND DFT-FLAG !
 

 symmetry group of the molecule :   c1 

 the group has the following generators :
   c1(z)

    1 symmetry operations found

 there are 1 real representations :   a   

 maximum number of shells which are related by symmetry :  1

 IRREP of excited state :   a   
 

 determining totally symmetric integral contributions 
    - equivalent to irreducible tensor elements - 
 which can be formed within each triple of representations :

             representation triple      contributions

              a     a     a               1

    mo occupation :
   irrep   mo's   occupied
    a      272       81
 
 number of basis functions   :                    272
 number of occupied orbitals :                     81
 
  
           ------------------
           density functional
           ------------------
 PBE0 hybrid functional
 exchange:    3/4 (LDA+PBE) + 1/4 HF
 correlation: LDA (PW) + PBE

 iterations will be done with small grid
  
 spherical integration : Lebedev's spherical grid
 spherical gridsize    :                     5
    i.e. gridpoints    :                   590
 value for diffuse not defined
 radial integration    : Chebyshev 2nd kind (scaling 3)
 radial gridsize       :                     8
 integration cells     :                    21
 partition function    : becke
 partition sharpness   :                     3
  
  
           ----------------------
               RI - INFORMATION
           ----------------------

 biggest AO integral is expected to be    21.668154127

 Threshold for integral neglect (rithr2):   0.11E-10
 Threshold for integral neglect (rithr1):   0.11E-10

 Contributions to RI integral batches: 
  neglected integral batches:                  2115
  direct contribution:                            0
  memory contribution:                  5145
 Core memory available (ricore)            5000 MiB
 Core memory needed for (P|Q) and Cholesky 7 MiB
 Core memory used for integrals            250 MiB
  
 ****************************************
 Memory allocated for RIDFT 257 MiB
 ****************************************
                                            
  MOs are in ASCII format !


 reading orbital data $scfmo  from file mos
 orbital characterization : scfconv=7
 preparing numerical integration ....
          Overall gridpoints after grid construction =        122132

 Calculating ground state density on molecular grid

 Integral of ground state density: N =   162.0000035498828    



 number of non-frozen orbitals          :   272
 number of non-frozen occupied orbitals :    81



                        -------------------
                         excitation vector 
                        -------------------


 dimension of super-tensorspace: 2

          IRREP   tensor space dimension   number of roots

           a             15471                   1

 maximum number of Davidson iterations set to   25


 machine precision: 2.22D-16


 logfile sing_a    will be constructed


                       Nonorthonormal Krylov Space Iteration


 total number of roots to be determined:   1


 maximum core memory set to  5000 MB,
 corresponding to     3796 vectors in CAO basis


 maximum number of simultaneously treated vectors (including degeneracy):        2


 Iteration IRREP Converged      Max. Euclidean
                 roots          residual norm

    1       a        0        2.998870254614514D-02
 
    2       a        0        1.679920616573795D-02
 
    3       a        0        1.198509893309268D-01
 
    4       a        0        3.031563228027350D-02
 
    5       a        0        1.389052159498853D-02
 
    6       a        0        5.374003199382593D-03
 
    7       a        0        2.468173061133883D-03
 
    8       a        0        1.129553268340939D-03
 
    9       a        0        4.298132416634152D-04
 
   10       a        0        2.113963674073945D-04
 
   11       a        0        8.509069605847923D-05
 
   12       a        0        3.847783899631190D-05
 
   13       a        0        1.402733994533120D-05
 
   14       a        1        6.736068770067967D-06
 

 converged!


 Switching to fine grid

 preparing numerical integration ....
          Overall gridpoints after grid construction =        372373

 Calculating ground state density on molecular grid

 Integral of ground state density: N =   161.9999977048035    



 Iteration IRREP Converged      Max. Euclidean
                 roots          residual norm

   15       a        1        9.332696318024702D-06
 

 converged!

 Eigenpairs written on logfile sing_a   



 IRREP   Vector     Eigenvalue           Euclidean residual norm

  a         1    8.336991921040596D-02    9.332696318024702D-06
 




                    Selection rules for point group c1  


 Subduction with respect to c1  :

    Polar vector representation: a                           

    Axial vector representation: a                           

    Symmetric second rank tensor representation: a                           




                            Ground state


 Total energy:                           -4011.725570355000    

 Charge:

               elec          nuc         total

          -162.000000   161.000000    -1.000000


 Electric dipole moment:

               elec          nuc         total   

    x      637.844779  -632.802839     5.041939    Norm:              7.951251
    y     -783.046112   776.897846    -6.148266
    z       -0.772154     0.764035    -0.008119    Norm / debye:     20.210218


 Electric quadrupole moment:

               elec          nuc         total   

   xx    -7846.413308  7671.809478  -174.603830
   yy    -5932.410065  5795.848913  -136.561152    1/3*trace:      -134.660137
   zz      -98.518707     5.703280   -92.815427
   xy     4835.064735 -4800.348278    34.716457
   xz        6.251537    -6.229346     0.022191    Anisotropy:       92.956203
   yz      -10.171660    10.092794    -0.078866



 ==============================================================================

                              I R R E P   a   

 ==============================================================================


 Excitation is electric dipole allowed

 Excitation is magnetic dipole allowed

 Excitation is electric quadrupole allowed




                         1 singlet a excitation


 Total energy:                           -4011.642200435790    

 Excitation energy:                      0.8336991921040596E-01

 Excitation energy / eV:                  2.268611900295250    

 Excitation energy / nm:                  546.5202928289864    

 Excitation energy / cm^(-1):             18297.58223019269    


 Oscillator strength:

    velocity representation:             0.3081077143857912    

    length representation:               0.3594366292734593    

    mixed representation:                0.3327784301070916    


 Rotatory strength:

    velocity representation:             0.1001739482965548E-04

    velocity rep. / 10^(-40)erg*cm^3:    0.6471719538388105    

    length representation:               0.1067993802534635E-04

    length rep. / 10^(-40)erg*cm^3:      0.6899754353576288    


 Dominant contributions:

      occ. orbital   energy / eV   virt. orbital     energy / eV   |coeff.|^2*100
       81 a              -2.01          82 a               0.46       91.7
 

 Change of electron number:

             0.000000


 Electric transition dipole moment (velocity rep.):

    x       -2.314071        Norm:                  2.354465
    y        0.434257
    z        0.000791        Norm / debye:          5.984498


 Electric transition dipole moment (length rep.):

    x       -2.496647        Norm:                  2.543034
    y        0.483503
    z        0.000655        Norm / debye:          6.463796


 Magnetic transition dipole moment / i:

    x       -0.000003        Norm:                  0.001093
    y        0.000006
    z        0.001093        Norm / Bohr mag.:      0.299439


 Electric quadrupole transition moment:

   xx       18.748232
   yy        4.453302        1/3*trace:             7.697086
   zz       -0.110278
   xy      -11.267531
   xz       -0.007845        Anisotropy:           25.909061
   yz        0.007398
 

 Excited state no.    1 chosen for optimization


                       ----------------------
                        CPKS right-hand side 
                       ----------------------


          IRREP   tensor space dimension   number of roots

           a             15471                   1

                          ----------------
                           CPKS equations 
                          ----------------


 logfile dipl_a    will be constructed

 Switching to coarse grid

 preparing numerical integration ....
          Overall gridpoints after grid construction =        122132


                       Nonorthonormal Krylov Space Iteration


 total number of roots to be determined:   1


 maximum core memory set to  5000 MB,
 corresponding to     7544 vectors in CAO basis


 maximum number of simultaneously treated vectors (including degeneracy):        1


 Iteration IRREP Converged      Max. Euclidean
                 roots          residual norm

    1       a        0        1.086004925487757D-01
 
    2       a        0        4.850027901282140D-02
 
    3       a        0        2.230700125077651D-02
 
    4       a        0        9.431197126812771D-03
 
    5       a        0        3.552221592958347D-03
 
    6       a        0        1.239533193663044D-03
 
    7       a        0        4.773968762907440D-04
 
    8       a        0        1.646106594517553D-04
 
    9       a        0        8.234557364219880D-05
 
   10       a        0        1.903681916472054D-05
 
   11       a        1        8.071951311721753D-06
 

 converged!


 Switching to fine grid

 preparing numerical integration ....
          Overall gridpoints after grid construction =        372373

 Iteration IRREP Converged      Max. Euclidean
                 roots          residual norm

   12       a        0        1.625212276445339D-05
 

 NOTE: Residual norms are larger than 1.00D-05 due to mgrid option!

 Eigenpairs written on logfile dipl_a   



 IRREP   Vector     Frequency            Euclidean residual norm

  a         1    0.000000000000000D+00    1.625212276445339D-05
 

                          -------------------
                           relaxed densities 
                          -------------------


    ----------------------------------------
     S+T+V CONTRIBUTIONS TO ENERGY GRADIENT 
    ----------------------------------------

 1e-integral 1st. derivatives will be neglected if expon. factor < 0.100000E-10


    -----------------------------------------------
     TWO ELECTRON CONTRIBUTIONS TO ENERGY GRADIENT 
    -----------------------------------------------

 setting up bound for integral derivative estimation

 increment for numerical differentiation : 0.00050000

 biggest AO integral is expected to be    21.668154127
 biggest cartesian 1st derivative AO integral is expected to be    83.347447328

 biggest 1-particle AO density matrix element is expected to be    3.2069524166

 core memory to be involved in 2e-gradient :
   symmetry shell pair data              :         1
   two particle density+dens. estimates  :      8556
   derivative integrals                  :      8498
   derivative integral bound             :     21780
   totally                               :     30276


 setting up bound for integral derivative estimation

 increment for numerical differentiation : 0.00050000

 biggest AO integral is expected to be    21.668154127
 biggest cartesian 1st derivative AO integral is expected to be    83.347447328

 2e-integral 1st. derivatives will be neglected if expon. factor < 0.100000E-06
 outer boundary for 2e-integral derivative neglection is 0.162055E-08

 Integrated ground state density     :   161.9999977048030    


          ------------------------------------------------
           cartesian gradient of the energy (hartree/bohr)
          ------------------------------------------------

  ATOM      1 o           2 c           3 c           4 c           5 c 
dE/dx -0.4688559D-03 -0.4071696D-03 -0.1106660D-02  0.2331767D-03 -0.1009727D-02
dE/dy  0.5772449D-03  0.8674852D-03  0.1095811D-03 -0.5709440D-03 -0.1664079D-02
dE/dz -0.1639032D-03  0.4169384D-03 -0.2485677D-04  0.5158005D-04  0.2493508D-03

  ATOM      6 c           7 c           8 s           9 c          10 n 
dE/dx  0.1080051D-02  0.6152938D-03  0.1417389D-02  0.1958577D-02 -0.1386893D-02
dE/dy -0.2519790D-03 -0.4781576D-03 -0.2835490D-03  0.4219777D-03  0.8345210D-03
dE/dz -0.1023391D-03 -0.3867333D-03 -0.1108844D-03  0.3450086D-05 -0.1113386D-03

  ATOM     11 c          12 s          13 n          14 c          15 c 
dE/dx  0.7183635D-03  0.1374396D-03 -0.2004253D-02 -0.1343414D-02 -0.2494635D-03
dE/dy  0.1577054D-02  0.5406714D-03 -0.1220835D-02  0.3107448D-03 -0.5837018D-03
dE/dz -0.1204610D-03 -0.4176504D-04  0.6206167D-04  0.2088486D-03  0.4017638D-04

  ATOM     16 h          17 h          18 o          19 br         20 h 
dE/dx  0.2812602D-03  0.1314609D-03  0.1082156D-02  0.2838809D-04  0.1139810D-03
dE/dy -0.1153750D-03 -0.1979292D-03  0.1306030D-03 -0.3211490D-03  0.5865870D-04
dE/dz  0.8601941D-04 -0.1031945D-03 -0.1058482D-03 -0.2064154D-04  0.3179974D-04

  ATOM     21 h 
dE/dx  0.1667076D-03
dE/dy  0.2454052D-03
dE/dz  0.1416361D-03
 
 resulting FORCE  (fx,fy,fz) = (-.122D-04,-.138D-04,-.104D-06)
 resulting MOMENT (mx,my,mz) = (0.244D-05,0.129D-05,0.733D-04)


 **********************************************************************
  |maximum component of gradient| : 0.20042527E-02  (atom 13 n )       
   gradient norm                  : 0.55386078E-02
 **********************************************************************

 exx =       0.000341 eyy =      -0.001724 ezz =       0.000324
 eyz =       0.000124 exz =       0.000213 exy =      -0.004208


 <getgrd> : data group $grad  is missing 

   ***  cartesian gradients written onto <gradient>  ***
 
 
 
 ==============================================================================
                           electrostatic moments
 ==============================================================================

 reference point for electrostatic moments:    0.00000   0.00000   0.00000

 
              nuc           gs,e       ->  gs,tot          excit     ->  total
 ------------------------------------------------------------------------------
                          charge      
 ------------------------------------------------------------------------------
         161.000000    -162.000000      -1.000000       0.000000      -1.000000
 
 ------------------------------------------------------------------------------
                       dipole moment  
 ------------------------------------------------------------------------------
   x    -632.802839     637.844779       5.041939      -1.253363       3.788576
   y     776.897846    -783.046112      -6.148266       1.273020      -4.875246
   z       0.764035      -0.772154      -0.008119       0.003997      -0.004122
 
   | dipole moment | =     6.1742 a.u. =    15.6934 debye 
 
 ------------------------------------------------------------------------------
                     quadrupole moment
 ------------------------------------------------------------------------------
  xx    7671.809478   -7846.413308    -174.603830       2.133644    -172.470186
  yy    5795.848913   -5932.410065    -136.561152      13.608071    -122.953082
  zz       5.703280     -98.518707     -92.815427       0.199657     -92.615771
  xy   -4800.348278    4835.064735      34.716457     -12.191214      22.525243
  xz      -6.229346       6.251537       0.022191      -0.034458      -0.012267
  yz      10.092794     -10.171660      -0.078866       0.029016      -0.049849
 
     1/3  trace=    -129.346346
     anisotropy=      79.979245
 
 ==============================================================================
 


    ------------------------------------------------------------------------
         total  cpu-time :  5 minutes and 44 seconds
         total wall-time :  5 minutes and 44 seconds
    ------------------------------------------------------------------------

   ****  egrad : all done  ****


    2018-02-09 21:02:50.714 

$dipole from egrad
  x     3.78857598860168    y    -4.87524635168336    z    -0.00412249115356    a.u.
   | dipole | =   15.6934944739  debye
/work/bdnguye2/luc_project/7_brluc/ex_geo_opt/save/numforce/KraftWerk/p079
