 operating system is UNIX !

 ridft (missouri) : TURBOMOLE V7.2 ( 21454 ) 4 Oct 2017 at 12:48:15
 Copyright (C) 2017 TURBOMOLE GmbH, Karlsruhe


    2018-02-09 21:22:56.679 



                                  r i d f t

                        DFT program with RI approximation 
                                for coulomb part 




                                                 
                                 References:     
                                                 
          TURBOMOLE:                             
              R. Ahlrichs, M. Baer, M. Haeser, H. Horn, and
              C. Koelmel
              Electronic structure calculations on workstation
              computers: the program system TURBOMOLE
              Chem. Phys. Lett. 162: 165 (1989)
          Density Functional:                              
              O. Treutler and R. Ahlrichs                      
              Efficient Molecular Numerical Integration Schemes
              J. Chem. Phys. 102: 346 (1995)                   
          Parallel Version:                                
              Performance of parallel TURBOMOLE for Density    
              Functional Calculations                          
              M. v. Arnim and R. Ahlrichs                      
              J. Comp. Chem. 19: 1746 (1998)                   
          RI-J Method:                                     
              Auxiliary Basis Sets to approximate Coulomb      
              Potentials                                       
              Chem. Phys. Lett. 240: 283 (1995)                
              K. Eichkorn, O. Treutler, H. Oehm, M. Haeser     
              and R. Ahlrichs                                  
              Chem. Phys. Lett. 242: 652 (1995)                
                                                           
              Auxiliary Basis Sets for Main Row Atoms and their
              Use to approximate Coulomb Potentials            
              K. Eichkorn, F. Weigend, O. Treutler and         
              R. Ahlrichs                                      
              Theo. Chem. Acc. 97: 119 (1997)                   
                                                           
              Accurate Coulomb-fitting basis sets for H to Rn 
              F. Weigend                                        
              Phys. Chem. Chem. Phys. 8: 1057 (2006)            
                                                           
          Multipole accelerated RI-J (MARI-J):             
              Fast evaluation of the Coulomb potential for     
              electron densities using multipole accelerated   
              resolution of identity approximation             
              M. Sierka, A. Hogekamp and R. Ahlrichs           
              J. Chem. Phys. 118: 9136 (2003)                  
          RI-JK Method:                                     
              A fully direct RI-HF algorithm: Implementation,
              optimised auxiliary basis sets, demonstration of
              accuracy and efficiency                         
              F. Weigend                                      
              Phys. Chem. Chem. Phys. 4: 4285 (2002)           
          Two-component HF and DFT with spin-orbit coupling:  
              Self-consistent treatment of spin-orbit         
              interactions with efficient Hartree-Fock and    
              density functional methods                      
              M. K. Armbruster, F. Weigend, C. van Wüllen and 
              W. Klopper                                      
              Phys. Chem. Chem. Phys. 10: 1748 (2008)         
          Relativistic all-electron 2c calculations           
              An efficient implementation of two-component    
              relativistic exact-decoupling methods for large 
              molecules                                       
              D. Peng, N. Middendorf, F. Weigend, M. Reiher   
              J. Chem. Phys. 138, 184105 (2013)               
                                         




              +--------------------------------------------------+
              |      general information about current run       |
              +--------------------------------------------------+

 
 PBE0 hybrid functional
 exchange:    3/4 (LDA+PBE) + 1/4 HF
 correlation: LDA (PW) + PBE
 A Hybrid-DFT calculation using the RI-J approximation will be carried out.
 Allocatable memory for RI due to $ricore (MB):                  5000


              +--------------------------------------------------+
              | Atomic coordinate, charge and isotop information |
              +--------------------------------------------------+

                    atomic coordinates            atom    charge  isotop
        -12.81618629    6.80638670    0.00501765    o      8.000     0
        -10.87195537    5.50827984    0.00282539    c      6.000     0
         -8.33312924    6.66578228    0.00570809    c      6.000     0
         -6.09904799    5.19317115    0.00298297    c      6.000     0
         -6.19559864    2.53362482   -0.00860479    c      6.000     0
         -8.59782549    1.37141713   -0.01365975    c      6.000     0
        -10.80037968    2.77395352   -0.01067748    c      6.000     0
         -3.01494757    6.22016297    0.00635831    s     16.000     0
         -2.03772265    3.03489944   -0.00353332    c      6.000     0
         -3.85504381    1.35685488   -0.01125196    n      7.000     0
          0.63170306    2.55107212   -0.00223239    c      6.000     0
          1.62511006   -0.65625655   -0.01414471    s     16.000     0
          2.37417629    4.30776848    0.00669520    n      7.000     0
          4.78192667    3.37069265    0.00321827    c      6.000     0
          4.85328725    0.44020905   -0.00423971    c      6.000     0
          5.88435584   -0.23756564    1.67802183    h      1.000     0
          5.87984793   -0.22352369   -1.69138439    h      1.000     0
          6.72711163    4.59670233    0.01206070    o      8.000     0
         -8.16978040   10.16706329    0.02134170    br    35.000     0
         -8.67223705   -0.69587772   -0.01642921    h      1.000     0
        -12.64994693    1.84040408   -0.00918144    h      1.000     0
 
       center of nuclear mass  :   -4.07596405    5.04278682    0.00392147
       center of nuclear charge:   -3.93061377    4.82663878    0.00322271

              +--------------------------------------------------+
              |               basis set information              |
              +--------------------------------------------------+

              we will work with the 1s 3p 5d 7f 9g ... basis set
              ...i.e. with spherical basis functions...

   type   atoms  prim   cont   basis
   ---------------------------------------------------------------------------
    o        2     24     14   def2-SV(P)   [3s2p1d|7s4p1d]
    c       10     24     14   def2-SV(P)   [3s2p1d|7s4p1d]
    s        2     36     18   def2-SV(P)   [4s3p1d|10s7p1d]
    n        2     24     14   def2-SV(P)   [3s2p1d|7s4p1d]
    h        4      4      2   def2-SV(P)   [2s|4s]
    br       1     74     32   def2-SV(P)   [5s4p3d|14s10p6d]
   ---------------------------------------------------------------------------
   total:   21    498    272
   ---------------------------------------------------------------------------

   total number of primitive shells          :   88
   total number of contracted shells         :  120
   total number of cartesian basis functions :  291
   total number of SCF-basis functions       :  272


 integral neglect threshold       :  0.11E-10
 integral storage threshold THIZE :  0.10E-04
 integral storage threshold THIME :         5

 RI-J AUXILIARY BASIS SET information:

              we will work with the 1s 3p 5d 7f 9g ... basis set
              ...i.e. with spherical basis functions...

   type   atoms  prim   cont   basis
   ---------------------------------------------------------------------------
    o        2     70     49   def2-SV(P)   [6s4p3d1f1g|12s5p4d2f1g]
    c       10     70     49   def2-SV(P)   [6s4p3d1f1g|12s5p4d2f1g]
    s        2     77     51   def2-SV(P)   [8s4p3d1f1g|14s5p5d2f1g]
    n        2     70     49   def2-SV(P)   [6s4p3d1f1g|12s5p4d2f1g]
    h        4     16     11   def2-SV(P)   [3s1p1d|5s2p1d]
    br       1     89     58   def2-SV(P)   [8s4p3d2f1g|19s5p5d3f1g]
   ---------------------------------------------------------------------------
   total:   21   1287    890
   ---------------------------------------------------------------------------

   total number of primitive shells          :  140
   total number of contracted shells         :  282
   total number of cartesian basis functions : 1101
   total number of SCF-basis functions       :  890


 symmetry group of the molecule :   c1 

 the group has the following generators :
   c1(z)

    1 symmetry operations found

 there are 1 real representations :   a   

 maximum number of shells which are related by symmetry :  1


    mo occupation :
   irrep   mo's   occupied
    a      272       81
 
 number of basis functions   :                    272
 number of occupied orbitals :                     81
 
  
           ------------------
           density functional
           ------------------
 PBE0 hybrid functional
 exchange:    3/4 (LDA+PBE) + 1/4 HF
 correlation: LDA (PW) + PBE

 iterations will be done with small grid
  
 spherical integration : Lebedev's spherical grid
 spherical gridsize    :                     5
    i.e. gridpoints    :                   590
 value for diffuse not defined
 radial integration    : Chebyshev 2nd kind (scaling 3)
 radial gridsize       :                     8
 integration cells     :                    21
 partition function    : becke
 partition sharpness   :                     3
  

 biggest AO integral is expected to be    21.668154127
  
           ------------------------
               RI-J - INFORMATION
           ------------------------
 Contributions to RI integral batches: 
  neglected integral batches:                  2259
  direct contribution:                            0
  memory contribution:                  5001
 Memory core needed for (P|Q) and Cholesky      7 MByte
 Memory core minimum needed except of (P|Q)     1 MByte
 Total minimum memory core needed (sum)         7 MByte
  
 ****************************************
 Memory allocated for RI-J   249 MByte
 ****************************************
                                            

          ------------------------
          nuclear repulsion energy  :   1710.57410672    
          ------------------------


         -----------------
         -S,T+V- integrals
         -----------------

 1e-integrals will be neglected if expon. factor < 0.114844E-11
 
   Difference densities algorithm switched on.
   The maximal number of linear combinations of
   difference densities is                    20 .

 DIIS switched on: error vector is FDS-SDF
 Max. Iterations for DIIS is     :   4
 DIIS matrix (see manual) 
    Scaling factor of diagonals  :  1.200
    threshold for scaling factor :  0.000

 scf convergence criterion : increment of total energy < .1000000D-06
                  and increment of one-electron energy < .1000000D-03

  MOs are in ASCII format !


 automatic virtual orbital shift switched on 
      shift if e(lumo)-e(homo) < 0.10000000    


 reading orbital data $scfmo  from file mos
 orbital characterization : scfconv=7

 dump of DSCF restart information has been disabled !


 Starting SCF iterations

          Overall gridpoints after grid construction =        122130

 ITERATION  ENERGY          1e-ENERGY        2e-ENERGY     NORM[dD(SAO)]  TOL
   1  -4011.7255411480    -8981.9991133     3259.6994654    0.000D+00 0.115D-10
                            Exc = -172.724290777     Coul =  3488.08215184    
                            exK = -55.6583956130    
                              N = 162.00000424    
                            current damping = 0.700
 
          max. resid. norm for Fia-block=  2.331D-03 for orbital      1a         
          max. resid. fock norm         =  4.871D-03 for orbital    269a         

 ITERATION  ENERGY          1e-ENERGY        2e-ENERGY     NORM[dD(SAO)]  TOL
   2  -4011.7255618456    -8981.9994339     3259.6997653    0.166D-01 0.726D-11
                            Exc = -172.724617926      Eck =  3432.42438321    
                              N = 162.00000424    
                            current damping = 0.650
 
          Norm of current diis error: 0.50404E-02
          max. resid. norm for Fia-block=  9.598D-04 for orbital      1a         
          max. resid. fock norm         =  2.057D-03 for orbital    269a         

 ITERATION  ENERGY          1e-ENERGY        2e-ENERGY     NORM[dD(SAO)]  TOL
   3  -4011.7255652649    -8982.0041396     3259.7044676    0.471D-02 0.560D-11
                            Exc = -172.724293784      Eck =  3432.42876140    
                              N = 162.00000425    
                            current damping = 0.500
 
          Norm of current diis error: 0.34582E-02
          max. resid. norm for Fia-block=  3.782D-04 for orbital      1a         
          max. resid. fock norm         =  7.800D-04 for orbital    269a         

 ITERATION  ENERGY          1e-ENERGY        2e-ENERGY     NORM[dD(SAO)]  TOL
   4  -4011.7255670745    -8981.9989922     3259.6993184    0.174D-02 0.521D-11
                            Exc = -172.724616438      Eck =  3432.42393481    
                              N = 162.00000423    
                            current damping = 0.550
 
          Norm of current diis error: 0.15441E-02
          max. resid. norm for Fia-block=  1.261D-04 for orbital      1a         
          max. resid. fock norm         =  2.768D-04 for orbital    269a         

 ITERATION  ENERGY          1e-ENERGY        2e-ENERGY     NORM[dD(SAO)]  TOL
   5  -4011.7255674890    -8982.0019538     3259.7022795    0.917D-03 0.501D-11
                            Exc = -172.724499197      Eck =  3432.42677874    
                              N = 162.00000424    
                            current damping = 0.600
 
          Norm of current diis error: 0.68607E-03
          max. resid. norm for Fia-block=  4.473D-05 for orbital      1a         
          max. resid. fock norm         =  9.717D-05 for orbital    199a         
          mo-orthogonalization: Cholesky decomposition

 ITERATION  ENERGY          1e-ENERGY        2e-ENERGY     NORM[dD(SAO)]  TOL
   6  -4011.7255678046    -8982.0012986     3259.7016240    0.282D-03 0.488D-11
                            Exc = -172.724518964      Eck =  3432.42614300    
                              N = 162.00000425    
                            current damping = 0.650
 
          Norm of current diis error: 0.19986E-03
          max. resid. norm for Fia-block=  1.764D-05 for orbital     76a         
          max. resid. fock norm         =  3.660D-05 for orbital    269a         

 ENERGY CONVERGED !

          Overall gridpoints after grid construction =        372376

 ITERATION  ENERGY          1e-ENERGY        2e-ENERGY     NORM[dD(SAO)]  TOL
   7  -4011.7255641596    -8982.0012482     3259.7015774    0.127D-03 0.479D-11
                            Exc = -172.724523588      Eck =  3432.42610095    
                              N = 161.99999772    
                            current damping = 0.500
 
          Norm of current diis error: 0.12547E-03
          max. resid. norm for Fia-block=  6.938D-06 for orbital     76a         
          max. resid. fock norm         =  1.358D-05 for orbital    269a         

 End of SCF iterations

   convergence criteria satisfied after     7 iterations


                  ------------------------------------------ 
                 |  total energy      =  -4011.72556415964  |
                  ------------------------------------------ 
                 :  kinetic energy    =   4002.29138178274  :
                 :  potential energy  =  -8014.01694594238  :
                 :  virial theorem    =      1.99764834802  :
                 :  wavefunction norm =      1.00000000000  :
                  .......................................... 


 <geterg> : there is no data group $energy 


 orbitals $scfmo  will be written to file mos

    irrep                 77a         78a         79a         80a         81a   
 eigenvalues H         -0.16877    -0.16308    -0.12877    -0.11988    -0.07379
            eV          -4.5925     -4.4376     -3.5042     -3.2620     -2.0078
 occupation              2.0000      2.0000      2.0000      2.0000      2.0000 

    irrep                 82a         83a         84a         85a         86a   
 eigenvalues H          0.01726     0.10867     0.11897     0.12791     0.13608
            eV           0.4697      2.9569      3.2375      3.4805      3.7030
 
 
 
 
 ==============================================================================
                           electrostatic moments
 ==============================================================================

 reference point for electrostatic moments:    0.00000   0.00000   0.00000

 
              nuc           elec       ->  total
 ------------------------------------------------------------------------------
                          charge      
 ------------------------------------------------------------------------------
         161.000000    -162.000000      -1.000000
 
 ------------------------------------------------------------------------------
                       dipole moment  
 ------------------------------------------------------------------------------
   x    -632.828817     637.883088       5.054272
   y     777.088843    -783.237928      -6.149086
   z       0.518857      -0.525476      -0.006619
 
   | dipole moment | =     7.9597 a.u. =    20.2316 debye 
 
 ------------------------------------------------------------------------------
                     quadrupole moment
 ------------------------------------------------------------------------------
  xx    7676.369142   -7850.900935    -174.531793
  yy    5800.344269   -5936.927548    -136.583279
  zz       5.702067     -98.520035     -92.817969
  xy   -4805.002774    4839.721326      34.718552
  xz      -4.898650       4.885431      -0.013219
  yz       9.110488      -9.180483      -0.069996
 
     1/3  trace=    -134.644347
     anisotropy=      92.911083
 
 ==============================================================================
 


    ------------------------------------------------------------------------
         total  cpu-time :  55.38 seconds
         total wall-time :  55.39 seconds
    ------------------------------------------------------------------------

   ****  ridft : all done  ****


    2018-02-09 21:23:52.063 


 egrad (missouri) : TURBOMOLE V7.2 ( 21454 ) 4 Oct 2017 at 12:24:43
 Copyright (C) 2017 TURBOMOLE GmbH, Karlsruhe


    2018-02-09 21:23:52.082 




                               e g r a d

                             TURBOMOLE GmbH


             integral direct evaluation of excited state
                     and polarizability gradients
                 and first-order nonadiabatic couplings



          references (see also programs escf, dscf and ridft) 

          review 
          F. Furche and D. Rappoport,  
          "Density functional methods for excited states: 
          equilibrium structure and electronic spectra",
          ch. III of "Computational Photochemistry", ed. by 
          M. Olivucci, vol. 16 of "Theoretical and Computational 
          Chemistry", Elsevier, Amsterdam, 2005.

          nonorthonormal Krylov space methods 
          F. Furche, B. T. Krull, B. D. Nguyen, J. Kwon, 
          J. Chem. Phys. 144 (2016), 174105.

          RI-J method 
          D. Rappoport and F. Furche, 
          J. Chem. Phys. 122 (2005), 064105.

          Lagrangian method, implementation, benchmarks 
          F. Furche and R. Ahlrichs,
          J. Chem. Phys. 117 (2002), 7433;
          J. Chem. Phys. 121 (2004), 12772 (E).

          Polarizability derivatives, Raman intensities 
          D. Rappoport and F. Furche, 
          J. Chem. Phys. 126 (2007), 201104.

          First-order nonadiabatic couplings 
          R. Send and F. Furche, 
          J. Chem. Phys. 132 (2010), 044107.
                                     




              +--------------------------------------------------+
              | Atomic coordinate, charge and isotop information |
              +--------------------------------------------------+

                    atomic coordinates            atom    charge  isotop
        -12.81618629    6.80638670    0.00501765    o      8.000     0
        -10.87195537    5.50827984    0.00282539    c      6.000     0
         -8.33312924    6.66578228    0.00570809    c      6.000     0
         -6.09904799    5.19317115    0.00298297    c      6.000     0
         -6.19559864    2.53362482   -0.00860479    c      6.000     0
         -8.59782549    1.37141713   -0.01365975    c      6.000     0
        -10.80037968    2.77395352   -0.01067748    c      6.000     0
         -3.01494757    6.22016297    0.00635831    s     16.000     0
         -2.03772265    3.03489944   -0.00353332    c      6.000     0
         -3.85504381    1.35685488   -0.01125196    n      7.000     0
          0.63170306    2.55107212   -0.00223239    c      6.000     0
          1.62511006   -0.65625655   -0.01414471    s     16.000     0
          2.37417629    4.30776848    0.00669520    n      7.000     0
          4.78192667    3.37069265    0.00321827    c      6.000     0
          4.85328725    0.44020905   -0.00423971    c      6.000     0
          5.88435584   -0.23756564    1.67802183    h      1.000     0
          5.87984793   -0.22352369   -1.69138439    h      1.000     0
          6.72711163    4.59670233    0.01206070    o      8.000     0
         -8.16978040   10.16706329    0.02134170    br    35.000     0
         -8.67223705   -0.69587772   -0.01642921    h      1.000     0
        -12.64994693    1.84040408   -0.00918144    h      1.000     0
 
       center of nuclear mass  :   -4.07596405    5.04278682    0.00392147
       center of nuclear charge:   -3.93061377    4.82663878    0.00322271

              +--------------------------------------------------+
              |               basis set information              |
              +--------------------------------------------------+

              we will work with the 1s 3p 5d 7f 9g ... basis set
              ...i.e. with spherical basis functions...

   type   atoms  prim   cont   basis
   ---------------------------------------------------------------------------
    o        2     24     14   def2-SV(P)   [3s2p1d|7s4p1d]
    c       10     24     14   def2-SV(P)   [3s2p1d|7s4p1d]
    s        2     36     18   def2-SV(P)   [4s3p1d|10s7p1d]
    n        2     24     14   def2-SV(P)   [3s2p1d|7s4p1d]
    h        4      4      2   def2-SV(P)   [2s|4s]
    br       1     74     32   def2-SV(P)   [5s4p3d|14s10p6d]
   ---------------------------------------------------------------------------
   total:   21    498    272
   ---------------------------------------------------------------------------

   total number of primitive shells          :   88
   total number of contracted shells         :  120
   total number of cartesian basis functions :  291
   total number of SCF-basis functions       :  272


 residuum convergence criterium   :  0.10E-04


 integral neglect threshold       :  0.11E-10
 integral storage threshold THIZE :  0.10E-04
 integral storage threshold THIME :         5

 
             FOUND RI-J FLAG !
 
  
 AUXILIARY BASIS SET information:

              we will work with the 1s 3p 5d 7f 9g ... basis set
              ...i.e. with spherical basis functions...

   type   atoms  prim   cont   basis
   ---------------------------------------------------------------------------
    o        2     70     49   def2-SV(P)   [6s4p3d1f1g|12s5p4d2f1g]
    c       10     70     49   def2-SV(P)   [6s4p3d1f1g|12s5p4d2f1g]
    s        2     77     51   def2-SV(P)   [8s4p3d1f1g|14s5p5d2f1g]
    n        2     70     49   def2-SV(P)   [6s4p3d1f1g|12s5p4d2f1g]
    h        4     16     11   def2-SV(P)   [3s1p1d|5s2p1d]
    br       1     89     58   def2-SV(P)   [8s4p3d2f1g|19s5p5d3f1g]
   ---------------------------------------------------------------------------
   total:   21   1287    890
   ---------------------------------------------------------------------------

   total number of primitive shells          :  140
   total number of contracted shells         :  282
   total number of cartesian basis functions : 1101
   total number of SCF-basis functions       :  890

 RPA SINGLET-EXCITATION-CALCULATION 
 
             FOUND DFT-FLAG !
 

 symmetry group of the molecule :   c1 

 the group has the following generators :
   c1(z)

    1 symmetry operations found

 there are 1 real representations :   a   

 maximum number of shells which are related by symmetry :  1

 IRREP of excited state :   a   
 

 determining totally symmetric integral contributions 
    - equivalent to irreducible tensor elements - 
 which can be formed within each triple of representations :

             representation triple      contributions

              a     a     a               1

    mo occupation :
   irrep   mo's   occupied
    a      272       81
 
 number of basis functions   :                    272
 number of occupied orbitals :                     81
 
  
           ------------------
           density functional
           ------------------
 PBE0 hybrid functional
 exchange:    3/4 (LDA+PBE) + 1/4 HF
 correlation: LDA (PW) + PBE

 iterations will be done with small grid
  
 spherical integration : Lebedev's spherical grid
 spherical gridsize    :                     5
    i.e. gridpoints    :                   590
 value for diffuse not defined
 radial integration    : Chebyshev 2nd kind (scaling 3)
 radial gridsize       :                     8
 integration cells     :                    21
 partition function    : becke
 partition sharpness   :                     3
  
  
           ----------------------
               RI - INFORMATION
           ----------------------

 biggest AO integral is expected to be    21.668154127

 Threshold for integral neglect (rithr2):   0.11E-10
 Threshold for integral neglect (rithr1):   0.11E-10

 Contributions to RI integral batches: 
  neglected integral batches:                  2114
  direct contribution:                            0
  memory contribution:                  5146
 Core memory available (ricore)            5000 MiB
 Core memory needed for (P|Q) and Cholesky 7 MiB
 Core memory used for integrals            251 MiB
  
 ****************************************
 Memory allocated for RIDFT 257 MiB
 ****************************************
                                            
  MOs are in ASCII format !


 reading orbital data $scfmo  from file mos
 orbital characterization : scfconv=7
 preparing numerical integration ....
          Overall gridpoints after grid construction =        122130

 Calculating ground state density on molecular grid

 Integral of ground state density: N =   162.0000042554120    



 number of non-frozen orbitals          :   272
 number of non-frozen occupied orbitals :    81



                        -------------------
                         excitation vector 
                        -------------------


 dimension of super-tensorspace: 2

          IRREP   tensor space dimension   number of roots

           a             15471                   1

 maximum number of Davidson iterations set to   25


 machine precision: 2.22D-16


 logfile sing_a    will be constructed


                       Nonorthonormal Krylov Space Iteration


 total number of roots to be determined:   1


 maximum core memory set to  5000 MB,
 corresponding to     3796 vectors in CAO basis


 maximum number of simultaneously treated vectors (including degeneracy):        2


 Iteration IRREP Converged      Max. Euclidean
                 roots          residual norm

    1       a        0        3.022288665836359D-02
 
    2       a        0        5.704443810919815D-02
 
    3       a        0        4.755806026741015D-02
 
    4       a        0        2.043509995302270D-02
 
    5       a        0        7.382731596053015D-03
 
    6       a        0        3.146070462527276D-03
 
    7       a        0        1.523443681542719D-03
 
    8       a        0        6.654938841676035D-04
 
    9       a        0        2.866834431026780D-04
 
   10       a        0        1.076488035077761D-04
 
   11       a        0        6.027481852002403D-05
 
   12       a        0        1.898204265345610D-05
 
   13       a        1        8.516176807357745D-06
 

 converged!


 Switching to fine grid

 preparing numerical integration ....
          Overall gridpoints after grid construction =        372376

 Calculating ground state density on molecular grid

 Integral of ground state density: N =   161.9999977236463    



 Iteration IRREP Converged      Max. Euclidean
                 roots          residual norm

   14       a        0        1.064940352395499D-05
 

 NOTE: Residual norms are larger than 1.00D-05 due to mgrid option!

 Eigenpairs written on logfile sing_a   



 IRREP   Vector     Eigenvalue           Euclidean residual norm

  a         1    8.336669075072060D-02    1.064940352395499D-05
 




                    Selection rules for point group c1  


 Subduction with respect to c1  :

    Polar vector representation: a                           

    Axial vector representation: a                           

    Symmetric second rank tensor representation: a                           




                            Ground state


 Total energy:                           -4011.725564160000    

 Charge:

               elec          nuc         total

          -162.000000   161.000000    -1.000000


 Electric dipole moment:

               elec          nuc         total   

    x      637.883088  -632.828817     5.054272    Norm:              7.959708
    y     -783.237928   777.088843    -6.149086
    z       -0.525476     0.518857    -0.006619    Norm / debye:     20.231714


 Electric quadrupole moment:

               elec          nuc         total   

   xx    -7850.900935  7676.369142  -174.531793
   yy    -5936.927548  5800.344269  -136.583279    1/3*trace:      -134.644347
   zz      -98.520035     5.702067   -92.817969
   xy     4839.721326 -4805.002774    34.718552
   xz        4.885431    -4.898650    -0.013219    Anisotropy:       92.911083
   yz       -9.180483     9.110488    -0.069996



 ==============================================================================

                              I R R E P   a   

 ==============================================================================


 Excitation is electric dipole allowed

 Excitation is magnetic dipole allowed

 Excitation is electric quadrupole allowed




                         1 singlet a excitation


 Total energy:                           -4011.642197469249    

 Excitation energy:                      0.8336669075072060E-01

 Excitation energy / eV:                  2.268524049399733    

 Excitation energy / nm:                  546.5414573818400    

 Excitation energy / cm^(-1):             18296.87366519551    


 Oscillator strength:

    velocity representation:             0.3102003464144451    

    length representation:               0.3619412184861950    

    mixed representation:                0.3350678300711150    


 Rotatory strength:

    velocity representation:             0.3989734067311015E-05

    velocity rep. / 10^(-40)erg*cm^3:    0.2577560369283892    

    length representation:               0.4109794715527510E-05

    length rep. / 10^(-40)erg*cm^3:      0.2655125330640312    


 Dominant contributions:

      occ. orbital   energy / eV   virt. orbital     energy / eV   |coeff.|^2*100
       81 a              -2.01          82 a               0.47       91.8
 

 Change of electron number:

             0.000000


 Electric transition dipole moment (velocity rep.):

    x       -2.321456        Norm:                  2.362493
    y        0.438420
    z        0.000296        Norm / debye:          6.004903


 Electric transition dipole moment (length rep.):

    x       -2.504789        Norm:                  2.551928
    y        0.488230
    z        0.000042        Norm / debye:          6.486402


 Magnetic transition dipole moment / i:

    x       -0.000000        Norm:                  0.001080
    y        0.000007
    z        0.001080        Norm / Bohr mag.:      0.295942


 Electric quadrupole transition moment:

   xx       18.775431
   yy        4.499472        1/3*trace:             7.721942
   zz       -0.109078
   xy      -11.322679
   xz       -0.000604        Anisotropy:           25.989275
   yz        0.004673
 

 Excited state no.    1 chosen for optimization


                       ----------------------
                        CPKS right-hand side 
                       ----------------------


          IRREP   tensor space dimension   number of roots

           a             15471                   1

                          ----------------
                           CPKS equations 
                          ----------------


 logfile dipl_a    will be constructed

 Switching to coarse grid

 preparing numerical integration ....
          Overall gridpoints after grid construction =        122130


                       Nonorthonormal Krylov Space Iteration


 total number of roots to be determined:   1


 maximum core memory set to  5000 MB,
 corresponding to     7544 vectors in CAO basis


 maximum number of simultaneously treated vectors (including degeneracy):        1


 Iteration IRREP Converged      Max. Euclidean
                 roots          residual norm

    1       a        0        1.086401062444370D-01
 
    2       a        0        4.871142668256092D-02
 
    3       a        0        2.237056070432221D-02
 
    4       a        0        9.450137236732856D-03
 
    5       a        0        3.551059093557644D-03
 
    6       a        0        1.243314096505679D-03
 
    7       a        0        4.796579980608887D-04
 
    8       a        0        1.645807782527814D-04
 
    9       a        0        8.226693098470110D-05
 
   10       a        0        1.915550480099185D-05
 
   11       a        1        8.106743001467436D-06
 

 converged!


 Switching to fine grid

 preparing numerical integration ....
          Overall gridpoints after grid construction =        372376

 Iteration IRREP Converged      Max. Euclidean
                 roots          residual norm

   12       a        0        1.626155846634477D-05
 

 NOTE: Residual norms are larger than 1.00D-05 due to mgrid option!

 Eigenpairs written on logfile dipl_a   



 IRREP   Vector     Frequency            Euclidean residual norm

  a         1    0.000000000000000D+00    1.626155846634477D-05
 

                          -------------------
                           relaxed densities 
                          -------------------


    ----------------------------------------
     S+T+V CONTRIBUTIONS TO ENERGY GRADIENT 
    ----------------------------------------

 1e-integral 1st. derivatives will be neglected if expon. factor < 0.100000E-10


    -----------------------------------------------
     TWO ELECTRON CONTRIBUTIONS TO ENERGY GRADIENT 
    -----------------------------------------------

 setting up bound for integral derivative estimation

 increment for numerical differentiation : 0.00050000

 biggest AO integral is expected to be    21.668154127
 biggest cartesian 1st derivative AO integral is expected to be    83.347447328

 biggest 1-particle AO density matrix element is expected to be    3.2069081311

 core memory to be involved in 2e-gradient :
   symmetry shell pair data              :         1
   two particle density+dens. estimates  :      8556
   derivative integrals                  :      8498
   derivative integral bound             :     21780
   totally                               :     30276


 setting up bound for integral derivative estimation

 increment for numerical differentiation : 0.00050000

 biggest AO integral is expected to be    21.668154127
 biggest cartesian 1st derivative AO integral is expected to be    83.347447328

 2e-integral 1st. derivatives will be neglected if expon. factor < 0.100000E-06
 outer boundary for 2e-integral derivative neglection is 0.162060E-08

 Integrated ground state density     :   161.9999977236457    


          ------------------------------------------------
           cartesian gradient of the energy (hartree/bohr)
          ------------------------------------------------

  ATOM      1 o           2 c           3 c           4 c           5 c 
dE/dx  0.5422139D-03 -0.1568501D-02  0.7296903D-03 -0.1327906D-02 -0.3752626D-03
dE/dy -0.2669610D-03  0.6172232D-03  0.3086786D-03  0.6926912D-03  0.1280240D-02
dE/dz -0.1981843D-03  0.5907543D-03 -0.2765389D-03  0.2624065D-03 -0.1005095D-03

  ATOM      6 c           7 c           8 s           9 c          10 n 
dE/dx -0.1216151D-02  0.2850507D-02  0.1279574D-03  0.1150321D-02  0.5118618D-03
dE/dy -0.4173858D-03  0.2151429D-03 -0.1999231D-03  0.9602629D-03 -0.1875775D-02
dE/dz -0.8156691D-04 -0.3982272D-03 -0.8763968D-04  0.1787118D-04 -0.1229896D-04

  ATOM     11 c          12 s          13 n          14 c          15 c 
dE/dx  0.7469378D-03  0.5108642D-03 -0.2691371D-03  0.1906583D-02  0.1507246D-03
dE/dy  0.4597896D-03 -0.3945016D-03  0.7334674D-04 -0.1331335D-03 -0.4071089D-03
dE/dz  0.1963453D-05 -0.1680959D-03  0.1916813D-03 -0.6107544D-03 -0.2077248D-03

  ATOM     16 h          17 h          18 o          19 br         20 h 
dE/dx -0.3378920D-04 -0.7453986D-03 -0.2042203D-02 -0.1338810D-03 -0.9427051D-04
dE/dy  0.1828476D-04  0.4028471D-03 -0.3464897D-03 -0.6801384D-03  0.2619132D-03
dE/dz -0.7634991D-04  0.7176668D-03  0.1727719D-03  0.3264379D-04  0.1113686D-03

  ATOM     21 h 
dE/dx -0.1433409D-02
dE/dy -0.5832956D-03
dE/dz  0.1184697D-03
 
 resulting FORCE  (fx,fy,fz) = (-.122D-04,-.143D-04,-.293D-06)
 resulting MOMENT (mx,my,mz) = (0.992D-05,-.126D-04,0.985D-04)


 **********************************************************************
  |maximum component of gradient| : 0.28505065E-02  (atom  7 c )       
   gradient norm                  : 0.62135878E-02
 **********************************************************************

 exx =       0.001649 eyy =       0.000893 ezz =      -0.001334
 eyz =      -0.000644 exz =       0.001171 exy =      -0.002905


 <getgrd> : data group $grad  is missing 

   ***  cartesian gradients written onto <gradient>  ***
 
 
 
 ==============================================================================
                           electrostatic moments
 ==============================================================================

 reference point for electrostatic moments:    0.00000   0.00000   0.00000

 
              nuc           gs,e       ->  gs,tot          excit     ->  total
 ------------------------------------------------------------------------------
                          charge      
 ------------------------------------------------------------------------------
         161.000000    -162.000000      -1.000000       0.000000      -1.000000
 
 ------------------------------------------------------------------------------
                       dipole moment  
 ------------------------------------------------------------------------------
   x    -632.828817     637.883088       5.054272      -1.248593       3.805678
   y     777.088843    -783.237928      -6.149086       1.267281      -4.881804
   z       0.518857      -0.525476      -0.006619       0.003696      -0.002923
 
   | dipole moment | =     6.1899 a.u. =    15.7332 debye 
 
 ------------------------------------------------------------------------------
                     quadrupole moment
 ------------------------------------------------------------------------------
  xx    7676.369142   -7850.900935    -174.531793       2.154079    -172.377714
  yy    5800.344269   -5936.927548    -136.583279      13.550262    -123.033017
  zz       5.702067     -98.520035     -92.817969       0.199067     -92.618901
  xy   -4805.002774    4839.721326      34.718552     -12.142897      22.575655
  xz      -4.898650       4.885431      -0.013219      -0.031586      -0.044805
  yz       9.110488      -9.180483      -0.069996       0.026050      -0.043946
 
     1/3  trace=    -129.343211
     anisotropy=      79.935507
 
 ==============================================================================
 


    ------------------------------------------------------------------------
         total  cpu-time :  5 minutes and 46 seconds
         total wall-time :  5 minutes and 46 seconds
    ------------------------------------------------------------------------

   ****  egrad : all done  ****


    2018-02-09 21:29:37.750 

$dipole from egrad
  x     3.80567829162010    y    -4.88180434345259    z    -0.00292297333583    a.u.
   | dipole | =   15.7333467175  debye
/work/bdnguye2/luc_project/7_brluc/ex_geo_opt/save/numforce/KraftWerk/p083
