 operating system is UNIX !

 ridft (missouri) : TURBOMOLE V7.2 ( 21454 ) 4 Oct 2017 at 12:48:15
 Copyright (C) 2017 TURBOMOLE GmbH, Karlsruhe


    2018-02-09 21:36:16.754 



                                  r i d f t

                        DFT program with RI approximation 
                                for coulomb part 




                                                 
                                 References:     
                                                 
          TURBOMOLE:                             
              R. Ahlrichs, M. Baer, M. Haeser, H. Horn, and
              C. Koelmel
              Electronic structure calculations on workstation
              computers: the program system TURBOMOLE
              Chem. Phys. Lett. 162: 165 (1989)
          Density Functional:                              
              O. Treutler and R. Ahlrichs                      
              Efficient Molecular Numerical Integration Schemes
              J. Chem. Phys. 102: 346 (1995)                   
          Parallel Version:                                
              Performance of parallel TURBOMOLE for Density    
              Functional Calculations                          
              M. v. Arnim and R. Ahlrichs                      
              J. Comp. Chem. 19: 1746 (1998)                   
          RI-J Method:                                     
              Auxiliary Basis Sets to approximate Coulomb      
              Potentials                                       
              Chem. Phys. Lett. 240: 283 (1995)                
              K. Eichkorn, O. Treutler, H. Oehm, M. Haeser     
              and R. Ahlrichs                                  
              Chem. Phys. Lett. 242: 652 (1995)                
                                                           
              Auxiliary Basis Sets for Main Row Atoms and their
              Use to approximate Coulomb Potentials            
              K. Eichkorn, F. Weigend, O. Treutler and         
              R. Ahlrichs                                      
              Theo. Chem. Acc. 97: 119 (1997)                   
                                                           
              Accurate Coulomb-fitting basis sets for H to Rn 
              F. Weigend                                        
              Phys. Chem. Chem. Phys. 8: 1057 (2006)            
                                                           
          Multipole accelerated RI-J (MARI-J):             
              Fast evaluation of the Coulomb potential for     
              electron densities using multipole accelerated   
              resolution of identity approximation             
              M. Sierka, A. Hogekamp and R. Ahlrichs           
              J. Chem. Phys. 118: 9136 (2003)                  
          RI-JK Method:                                     
              A fully direct RI-HF algorithm: Implementation,
              optimised auxiliary basis sets, demonstration of
              accuracy and efficiency                         
              F. Weigend                                      
              Phys. Chem. Chem. Phys. 4: 4285 (2002)           
          Two-component HF and DFT with spin-orbit coupling:  
              Self-consistent treatment of spin-orbit         
              interactions with efficient Hartree-Fock and    
              density functional methods                      
              M. K. Armbruster, F. Weigend, C. van Wüllen and 
              W. Klopper                                      
              Phys. Chem. Chem. Phys. 10: 1748 (2008)         
          Relativistic all-electron 2c calculations           
              An efficient implementation of two-component    
              relativistic exact-decoupling methods for large 
              molecules                                       
              D. Peng, N. Middendorf, F. Weigend, M. Reiher   
              J. Chem. Phys. 138, 184105 (2013)               
                                         




              +--------------------------------------------------+
              |      general information about current run       |
              +--------------------------------------------------+

 
 PBE0 hybrid functional
 exchange:    3/4 (LDA+PBE) + 1/4 HF
 correlation: LDA (PW) + PBE
 A Hybrid-DFT calculation using the RI-J approximation will be carried out.
 Allocatable memory for RI due to $ricore (MB):                  5000


              +--------------------------------------------------+
              | Atomic coordinate, charge and isotop information |
              +--------------------------------------------------+

                    atomic coordinates            atom    charge  isotop
        -12.81590159    6.80674370    0.00379019    o      8.000     0
        -10.87136425    5.50778011    0.00063593    c      6.000     0
         -8.33003697    6.66578228    0.00484293    c      6.000     0
         -6.09525746    5.18900877    0.00097847    c      6.000     0
         -6.19230915    2.52949992   -0.00496028    c      6.000     0
         -8.59325542    1.36572412   -0.01091814    c      6.000     0
        -10.80186800    2.76743278   -0.00372920    c      6.000     0
         -3.01494757    6.21858440    0.01327448    s     16.000     0
         -2.04414052    3.03180876    0.00085331    c      6.000     0
         -3.86054447    1.36111481   -0.00591018    n      7.000     0
          0.62583145    2.55389974   -0.00358856    c      6.000     0
          1.61916829   -0.65068446   -0.01414471    s     16.000     0
          2.37307301    4.31260228    0.00285462    n      7.000     0
          4.78007714    3.37287320    0.00048394    c      6.000     0
          4.85495478    0.44230007   -0.00586847    c      6.000     0
          5.88514021   -0.23776844    1.67713331    h      1.000     0
          5.87964512   -0.22263517   -1.69301315    h      1.000     0
          6.72632726    4.59836987    0.00996968    o      8.000     0
         -8.16759985   10.16979761    0.01750113    br    35.000     0
         -8.67038753   -0.69698100   -0.02126301    h      1.000     0
        -12.64437485    1.84040408   -0.00918144    h      1.000     0
 
       center of nuclear mass  :   -4.07624498    5.04370638    0.00379586
       center of nuclear charge:   -3.93094128    4.82749020    0.00318858

              +--------------------------------------------------+
              |               basis set information              |
              +--------------------------------------------------+

              we will work with the 1s 3p 5d 7f 9g ... basis set
              ...i.e. with spherical basis functions...

   type   atoms  prim   cont   basis
   ---------------------------------------------------------------------------
    o        2     24     14   def2-SV(P)   [3s2p1d|7s4p1d]
    c       10     24     14   def2-SV(P)   [3s2p1d|7s4p1d]
    s        2     36     18   def2-SV(P)   [4s3p1d|10s7p1d]
    n        2     24     14   def2-SV(P)   [3s2p1d|7s4p1d]
    h        4      4      2   def2-SV(P)   [2s|4s]
    br       1     74     32   def2-SV(P)   [5s4p3d|14s10p6d]
   ---------------------------------------------------------------------------
   total:   21    498    272
   ---------------------------------------------------------------------------

   total number of primitive shells          :   88
   total number of contracted shells         :  120
   total number of cartesian basis functions :  291
   total number of SCF-basis functions       :  272


 integral neglect threshold       :  0.11E-10
 integral storage threshold THIZE :  0.10E-04
 integral storage threshold THIME :         5

 RI-J AUXILIARY BASIS SET information:

              we will work with the 1s 3p 5d 7f 9g ... basis set
              ...i.e. with spherical basis functions...

   type   atoms  prim   cont   basis
   ---------------------------------------------------------------------------
    o        2     70     49   def2-SV(P)   [6s4p3d1f1g|12s5p4d2f1g]
    c       10     70     49   def2-SV(P)   [6s4p3d1f1g|12s5p4d2f1g]
    s        2     77     51   def2-SV(P)   [8s4p3d1f1g|14s5p5d2f1g]
    n        2     70     49   def2-SV(P)   [6s4p3d1f1g|12s5p4d2f1g]
    h        4     16     11   def2-SV(P)   [3s1p1d|5s2p1d]
    br       1     89     58   def2-SV(P)   [8s4p3d2f1g|19s5p5d3f1g]
   ---------------------------------------------------------------------------
   total:   21   1287    890
   ---------------------------------------------------------------------------

   total number of primitive shells          :  140
   total number of contracted shells         :  282
   total number of cartesian basis functions : 1101
   total number of SCF-basis functions       :  890


 symmetry group of the molecule :   c1 

 the group has the following generators :
   c1(z)

    1 symmetry operations found

 there are 1 real representations :   a   

 maximum number of shells which are related by symmetry :  1


    mo occupation :
   irrep   mo's   occupied
    a      272       81
 
 number of basis functions   :                    272
 number of occupied orbitals :                     81
 
  
           ------------------
           density functional
           ------------------
 PBE0 hybrid functional
 exchange:    3/4 (LDA+PBE) + 1/4 HF
 correlation: LDA (PW) + PBE

 iterations will be done with small grid
  
 spherical integration : Lebedev's spherical grid
 spherical gridsize    :                     5
    i.e. gridpoints    :                   590
 value for diffuse not defined
 radial integration    : Chebyshev 2nd kind (scaling 3)
 radial gridsize       :                     8
 integration cells     :                    21
 partition function    : becke
 partition sharpness   :                     3
  

 biggest AO integral is expected to be    21.668154127
  
           ------------------------
               RI-J - INFORMATION
           ------------------------
 Contributions to RI integral batches: 
  neglected integral batches:                  2258
  direct contribution:                            0
  memory contribution:                  5002
 Memory core needed for (P|Q) and Cholesky      7 MByte
 Memory core minimum needed except of (P|Q)     1 MByte
 Total minimum memory core needed (sum)         7 MByte
  
 ****************************************
 Memory allocated for RI-J   249 MByte
 ****************************************
                                            

          ------------------------
          nuclear repulsion energy  :   1710.59311292    
          ------------------------


         -----------------
         -S,T+V- integrals
         -----------------

 1e-integrals will be neglected if expon. factor < 0.114844E-11
 
   Difference densities algorithm switched on.
   The maximal number of linear combinations of
   difference densities is                    20 .

 DIIS switched on: error vector is FDS-SDF
 Max. Iterations for DIIS is     :   4
 DIIS matrix (see manual) 
    Scaling factor of diagonals  :  1.200
    threshold for scaling factor :  0.000

 scf convergence criterion : increment of total energy < .1000000D-06
                  and increment of one-electron energy < .1000000D-03

  MOs are in ASCII format !


 automatic virtual orbital shift switched on 
      shift if e(lumo)-e(homo) < 0.10000000    


 reading orbital data $scfmo  from file mos
 orbital characterization : scfconv=7

 dump of DSCF restart information has been disabled !


 Starting SCF iterations

          Overall gridpoints after grid construction =        122130

 ITERATION  ENERGY          1e-ENERGY        2e-ENERGY     NORM[dD(SAO)]  TOL
   1  -4011.7255664876    -8982.0313240     3259.7126446    0.000D+00 0.115D-10
                            Exc = -172.724355257     Coul =  3488.09545789    
                            exK = -55.6584580040    
                              N = 162.00000476    
                            current damping = 0.700
 
          max. resid. norm for Fia-block=  2.824D-03 for orbital      1a         
          max. resid. fock norm         =  5.162D-03 for orbital      1a         

 ITERATION  ENERGY          1e-ENERGY        2e-ENERGY     NORM[dD(SAO)]  TOL
   2  -4011.7255994198    -8982.0346067     3259.7158944    0.193D-01 0.726D-11
                            Exc = -172.725337390      Eck =  3432.44123176    
                              N = 162.00000481    
                            current damping = 0.650
 
          Norm of current diis error: 0.64262E-02
          max. resid. norm for Fia-block=  1.163D-03 for orbital      1a         
          max. resid. fock norm         =  2.377D-03 for orbital    262a         

 ITERATION  ENERGY          1e-ENERGY        2e-ENERGY     NORM[dD(SAO)]  TOL
   3  -4011.7256051667    -8982.0392909     3259.7205728    0.649D-02 0.568D-11
                            Exc = -172.724808193      Eck =  3432.44538102    
                              N = 162.00000482    
                            current damping = 0.500
 
          Norm of current diis error: 0.47500E-02
          max. resid. norm for Fia-block=  4.580D-04 for orbital      1a         
          max. resid. fock norm         =  8.375D-04 for orbital      1a         

 ITERATION  ENERGY          1e-ENERGY        2e-ENERGY     NORM[dD(SAO)]  TOL
   4  -4011.7256086324    -8982.0378563     3259.7191348    0.150D-02 0.519D-11
                            Exc = -172.725148589      Eck =  3432.44428335    
                              N = 162.00000484    
                            current damping = 0.550
 
          Norm of current diis error: 0.11975E-02
          max. resid. norm for Fia-block=  1.527D-04 for orbital      1a         
          max. resid. fock norm         =  2.936D-04 for orbital    262a         

 ENERGY CONVERGED !

          Overall gridpoints after grid construction =        372380

 ITERATION  ENERGY          1e-ENERGY        2e-ENERGY     NORM[dD(SAO)]  TOL
   5  -4011.7256052675    -8982.0375857     3259.7188675    0.102D-02 0.496D-11
                            Exc = -172.725224695      Eck =  3432.44409224    
                              N = 161.99999776    
                            current damping = 0.400
 
          Norm of current diis error: 0.71547E-03
          max. resid. norm for Fia-block=  5.418D-05 for orbital      1a         
          max. resid. fock norm         =  9.906D-05 for orbital      1a         

 End of SCF iterations

   convergence criteria satisfied after     5 iterations


                  ------------------------------------------ 
                 |  total energy      =  -4011.72560526750  |
                  ------------------------------------------ 
                 :  kinetic energy    =   4002.29254386326  :
                 :  potential energy  =  -8014.01814913076  :
                 :  virial theorem    =      1.99764862747  :
                 :  wavefunction norm =      0.99999999990  :
                  .......................................... 


 <geterg> : there is no data group $energy 


 orbitals $scfmo  will be written to file mos

    irrep                 77a         78a         79a         80a         81a   
 eigenvalues H         -0.16881    -0.16288    -0.12871    -0.11999    -0.07384
            eV          -4.5936     -4.4321     -3.5024     -3.2651     -2.0092
 occupation              2.0000      2.0000      2.0000      2.0000      2.0000 

    irrep                 82a         83a         84a         85a         86a   
 eigenvalues H          0.01731     0.10830     0.11894     0.12782     0.13613
            eV           0.4710      2.9471      3.2365      3.4783      3.7044
 
 
 
 
 ==============================================================================
                           electrostatic moments
 ==============================================================================

 reference point for electrostatic moments:    0.00000   0.00000   0.00000

 
              nuc           elec       ->  total
 ------------------------------------------------------------------------------
                          charge      
 ------------------------------------------------------------------------------
         161.000000    -162.000000      -1.000000
 
 ------------------------------------------------------------------------------
                       dipole moment  
 ------------------------------------------------------------------------------
   x    -632.881546     637.921099       5.039554
   y     777.225922    -783.381627      -6.155706
   z       0.513361      -0.522029      -0.008668
 
   | dipole moment | =     7.9555 a.u. =    20.2208 debye 
 
 ------------------------------------------------------------------------------
                     quadrupole moment
 ------------------------------------------------------------------------------
  xx    7673.682615   -7848.157879    -174.475264
  yy    5801.740841   -5938.361322    -136.620481
  zz       5.698943     -98.515599     -92.816655
  xy   -4803.473098    4838.142553      34.669455
  xz      -4.949858       4.964055       0.014197
  yz       8.249778      -8.307262      -0.057485
 
     1/3  trace=    -134.637467
     anisotropy=      92.821700
 
 ==============================================================================
 


    ------------------------------------------------------------------------
         total  cpu-time :  43.54 seconds
         total wall-time :  43.55 seconds
    ------------------------------------------------------------------------

   ****  ridft : all done  ****


    2018-02-09 21:37:00.292 


 egrad (missouri) : TURBOMOLE V7.2 ( 21454 ) 4 Oct 2017 at 12:24:43
 Copyright (C) 2017 TURBOMOLE GmbH, Karlsruhe


    2018-02-09 21:37:00.303 




                               e g r a d

                             TURBOMOLE GmbH


             integral direct evaluation of excited state
                     and polarizability gradients
                 and first-order nonadiabatic couplings



          references (see also programs escf, dscf and ridft) 

          review 
          F. Furche and D. Rappoport,  
          "Density functional methods for excited states: 
          equilibrium structure and electronic spectra",
          ch. III of "Computational Photochemistry", ed. by 
          M. Olivucci, vol. 16 of "Theoretical and Computational 
          Chemistry", Elsevier, Amsterdam, 2005.

          nonorthonormal Krylov space methods 
          F. Furche, B. T. Krull, B. D. Nguyen, J. Kwon, 
          J. Chem. Phys. 144 (2016), 174105.

          RI-J method 
          D. Rappoport and F. Furche, 
          J. Chem. Phys. 122 (2005), 064105.

          Lagrangian method, implementation, benchmarks 
          F. Furche and R. Ahlrichs,
          J. Chem. Phys. 117 (2002), 7433;
          J. Chem. Phys. 121 (2004), 12772 (E).

          Polarizability derivatives, Raman intensities 
          D. Rappoport and F. Furche, 
          J. Chem. Phys. 126 (2007), 201104.

          First-order nonadiabatic couplings 
          R. Send and F. Furche, 
          J. Chem. Phys. 132 (2010), 044107.
                                     




              +--------------------------------------------------+
              | Atomic coordinate, charge and isotop information |
              +--------------------------------------------------+

                    atomic coordinates            atom    charge  isotop
        -12.81590159    6.80674370    0.00379019    o      8.000     0
        -10.87136425    5.50778011    0.00063593    c      6.000     0
         -8.33003697    6.66578228    0.00484293    c      6.000     0
         -6.09525746    5.18900877    0.00097847    c      6.000     0
         -6.19230915    2.52949992   -0.00496028    c      6.000     0
         -8.59325542    1.36572412   -0.01091814    c      6.000     0
        -10.80186800    2.76743278   -0.00372920    c      6.000     0
         -3.01494757    6.21858440    0.01327448    s     16.000     0
         -2.04414052    3.03180876    0.00085331    c      6.000     0
         -3.86054447    1.36111481   -0.00591018    n      7.000     0
          0.62583145    2.55389974   -0.00358856    c      6.000     0
          1.61916829   -0.65068446   -0.01414471    s     16.000     0
          2.37307301    4.31260228    0.00285462    n      7.000     0
          4.78007714    3.37287320    0.00048394    c      6.000     0
          4.85495478    0.44230007   -0.00586847    c      6.000     0
          5.88514021   -0.23776844    1.67713331    h      1.000     0
          5.87964512   -0.22263517   -1.69301315    h      1.000     0
          6.72632726    4.59836987    0.00996968    o      8.000     0
         -8.16759985   10.16979761    0.01750113    br    35.000     0
         -8.67038753   -0.69698100   -0.02126301    h      1.000     0
        -12.64437485    1.84040408   -0.00918144    h      1.000     0
 
       center of nuclear mass  :   -4.07624498    5.04370638    0.00379586
       center of nuclear charge:   -3.93094128    4.82749020    0.00318858

              +--------------------------------------------------+
              |               basis set information              |
              +--------------------------------------------------+

              we will work with the 1s 3p 5d 7f 9g ... basis set
              ...i.e. with spherical basis functions...

   type   atoms  prim   cont   basis
   ---------------------------------------------------------------------------
    o        2     24     14   def2-SV(P)   [3s2p1d|7s4p1d]
    c       10     24     14   def2-SV(P)   [3s2p1d|7s4p1d]
    s        2     36     18   def2-SV(P)   [4s3p1d|10s7p1d]
    n        2     24     14   def2-SV(P)   [3s2p1d|7s4p1d]
    h        4      4      2   def2-SV(P)   [2s|4s]
    br       1     74     32   def2-SV(P)   [5s4p3d|14s10p6d]
   ---------------------------------------------------------------------------
   total:   21    498    272
   ---------------------------------------------------------------------------

   total number of primitive shells          :   88
   total number of contracted shells         :  120
   total number of cartesian basis functions :  291
   total number of SCF-basis functions       :  272


 residuum convergence criterium   :  0.10E-04


 integral neglect threshold       :  0.11E-10
 integral storage threshold THIZE :  0.10E-04
 integral storage threshold THIME :         5

 
             FOUND RI-J FLAG !
 
  
 AUXILIARY BASIS SET information:

              we will work with the 1s 3p 5d 7f 9g ... basis set
              ...i.e. with spherical basis functions...

   type   atoms  prim   cont   basis
   ---------------------------------------------------------------------------
    o        2     70     49   def2-SV(P)   [6s4p3d1f1g|12s5p4d2f1g]
    c       10     70     49   def2-SV(P)   [6s4p3d1f1g|12s5p4d2f1g]
    s        2     77     51   def2-SV(P)   [8s4p3d1f1g|14s5p5d2f1g]
    n        2     70     49   def2-SV(P)   [6s4p3d1f1g|12s5p4d2f1g]
    h        4     16     11   def2-SV(P)   [3s1p1d|5s2p1d]
    br       1     89     58   def2-SV(P)   [8s4p3d2f1g|19s5p5d3f1g]
   ---------------------------------------------------------------------------
   total:   21   1287    890
   ---------------------------------------------------------------------------

   total number of primitive shells          :  140
   total number of contracted shells         :  282
   total number of cartesian basis functions : 1101
   total number of SCF-basis functions       :  890

 RPA SINGLET-EXCITATION-CALCULATION 
 
             FOUND DFT-FLAG !
 

 symmetry group of the molecule :   c1 

 the group has the following generators :
   c1(z)

    1 symmetry operations found

 there are 1 real representations :   a   

 maximum number of shells which are related by symmetry :  1

 IRREP of excited state :   a   
 

 determining totally symmetric integral contributions 
    - equivalent to irreducible tensor elements - 
 which can be formed within each triple of representations :

             representation triple      contributions

              a     a     a               1

    mo occupation :
   irrep   mo's   occupied
    a      272       81
 
 number of basis functions   :                    272
 number of occupied orbitals :                     81
 
  
           ------------------
           density functional
           ------------------
 PBE0 hybrid functional
 exchange:    3/4 (LDA+PBE) + 1/4 HF
 correlation: LDA (PW) + PBE

 iterations will be done with small grid
  
 spherical integration : Lebedev's spherical grid
 spherical gridsize    :                     5
    i.e. gridpoints    :                   590
 value for diffuse not defined
 radial integration    : Chebyshev 2nd kind (scaling 3)
 radial gridsize       :                     8
 integration cells     :                    21
 partition function    : becke
 partition sharpness   :                     3
  
  
           ----------------------
               RI - INFORMATION
           ----------------------

 biggest AO integral is expected to be    21.668154127

 Threshold for integral neglect (rithr2):   0.11E-10
 Threshold for integral neglect (rithr1):   0.11E-10

 Contributions to RI integral batches: 
  neglected integral batches:                  2115
  direct contribution:                            0
  memory contribution:                  5145
 Core memory available (ricore)            5000 MiB
 Core memory needed for (P|Q) and Cholesky 7 MiB
 Core memory used for integrals            250 MiB
  
 ****************************************
 Memory allocated for RIDFT 257 MiB
 ****************************************
                                            
  MOs are in ASCII format !


 reading orbital data $scfmo  from file mos
 orbital characterization : scfconv=7
 preparing numerical integration ....
          Overall gridpoints after grid construction =        122130

 Calculating ground state density on molecular grid

 Integral of ground state density: N =   162.0000048375003    



 number of non-frozen orbitals          :   272
 number of non-frozen occupied orbitals :    81



                        -------------------
                         excitation vector 
                        -------------------


 dimension of super-tensorspace: 2

          IRREP   tensor space dimension   number of roots

           a             15471                   1

 maximum number of Davidson iterations set to   25


 machine precision: 2.22D-16


 logfile sing_a    will be constructed


                       Nonorthonormal Krylov Space Iteration


 total number of roots to be determined:   1


 maximum core memory set to  5000 MB,
 corresponding to     3796 vectors in CAO basis


 maximum number of simultaneously treated vectors (including degeneracy):        2


 Iteration IRREP Converged      Max. Euclidean
                 roots          residual norm

    1       a        0        3.001552976920312D-02
 
    2       a        0        2.134519957617579D-02
 
    3       a        0        8.425302280002336D-02
 
    4       a        0        2.070878986800524D-02
 
    5       a        0        9.983714260590531D-03
 
    6       a        0        3.919964976978622D-03
 
    7       a        0        1.867638657486129D-03
 
    8       a        0        8.135349157328539D-04
 
    9       a        0        3.692353372707599D-04
 
   10       a        0        1.476939520016228D-04
 
   11       a        0        6.582205913781266D-05
 
   12       a        0        2.925939069760121D-05
 
   13       a        1        8.902199972797131D-06
 

 converged!


 Switching to fine grid

 preparing numerical integration ....
          Overall gridpoints after grid construction =        372380

 Calculating ground state density on molecular grid

 Integral of ground state density: N =   161.9999977612290    



 Iteration IRREP Converged      Max. Euclidean
                 roots          residual norm

   14       a        0        1.094720449030078D-05
 

 NOTE: Residual norms are larger than 1.00D-05 due to mgrid option!

 Eigenpairs written on logfile sing_a   



 IRREP   Vector     Eigenvalue           Euclidean residual norm

  a         1    8.341808297653916D-02    1.094720449030078D-05
 




                    Selection rules for point group c1  


 Subduction with respect to c1  :

    Polar vector representation: a                           

    Axial vector representation: a                           

    Symmetric second rank tensor representation: a                           




                            Ground state


 Total energy:                           -4011.725605268000    

 Charge:

               elec          nuc         total

          -162.000000   161.000000    -1.000000


 Electric dipole moment:

               elec          nuc         total   

    x      637.921099  -632.881546     5.039554    Norm:              7.955494
    y     -783.381627   777.225922    -6.155706
    z       -0.522029     0.513361    -0.008668    Norm / debye:     20.221003


 Electric quadrupole moment:

               elec          nuc         total   

   xx    -7848.157879  7673.682615  -174.475264
   yy    -5938.361322  5801.740841  -136.620481    1/3*trace:      -134.637467
   zz      -98.515599     5.698943   -92.816655
   xy     4838.142553 -4803.473098    34.669455
   xz        4.964055    -4.949858     0.014197    Anisotropy:       92.821700
   yz       -8.307262     8.249778    -0.057485



 ==============================================================================

                              I R R E P   a   

 ==============================================================================


 Excitation is electric dipole allowed

 Excitation is magnetic dipole allowed

 Excitation is electric quadrupole allowed




                         1 singlet a excitation


 Total energy:                           -4011.642187185023    

 Excitation energy:                      0.8341808297653916E-01

 Excitation energy / eV:                  2.269922503616540    

 Excitation energy / nm:                  546.2047440339096    

 Excitation energy / cm^(-1):             18308.15295497789    


 Oscillator strength:

    velocity representation:             0.3094001115813480    

    length representation:               0.3603153193464976    

    mixed representation:                0.3338827926508001    


 Rotatory strength:

    velocity representation:            -0.1038639844392223E-04

    velocity rep. / 10^(-40)erg*cm^3:   -0.6710113645917567    

    length representation:              -0.1060171849403603E-04

    length rep. / 10^(-40)erg*cm^3:     -0.6849220768979429    


 Dominant contributions:

      occ. orbital   energy / eV   virt. orbital     energy / eV   |coeff.|^2*100
       81 a              -2.01          82 a               0.47       91.7
 

 Change of electron number:

             0.000000


 Electric transition dipole moment (velocity rep.):

    x       -2.318049        Norm:                  2.358717
    y        0.436110
    z       -0.000341        Norm / debye:          5.995305


 Electric transition dipole moment (length rep.):

    x       -2.498700        Norm:                  2.545405
    y        0.485369
    z        0.000144        Norm / debye:          6.469823


 Magnetic transition dipole moment / i:

    x        0.000005        Norm:                  0.001090
    y        0.000002
    z        0.001090        Norm / Bohr mag.:      0.298741


 Electric quadrupole transition moment:

   xx       18.748899
   yy        4.475659        1/3*trace:             7.705188
   zz       -0.108993
   xy      -11.286151
   xz        0.000207        Anisotropy:           25.929017
   yz        0.002496
 

 Excited state no.    1 chosen for optimization


                       ----------------------
                        CPKS right-hand side 
                       ----------------------


          IRREP   tensor space dimension   number of roots

           a             15471                   1

                          ----------------
                           CPKS equations 
                          ----------------


 logfile dipl_a    will be constructed

 Switching to coarse grid

 preparing numerical integration ....
          Overall gridpoints after grid construction =        122130


                       Nonorthonormal Krylov Space Iteration


 total number of roots to be determined:   1


 maximum core memory set to  5000 MB,
 corresponding to     7544 vectors in CAO basis


 maximum number of simultaneously treated vectors (including degeneracy):        1


 Iteration IRREP Converged      Max. Euclidean
                 roots          residual norm

    1       a        0        1.085148682460763D-01
 
    2       a        0        4.852063721245914D-02
 
    3       a        0        2.227159025133597D-02
 
    4       a        0        9.414489845820686D-03
 
    5       a        0        3.541113807498046D-03
 
    6       a        0        1.236965604325389D-03
 
    7       a        0        4.741979775810160D-04
 
    8       a        0        1.631949526367014D-04
 
    9       a        0        8.197432719234003D-05
 
   10       a        0        1.902778427569509D-05
 
   11       a        1        8.072322472382647D-06
 

 converged!


 Switching to fine grid

 preparing numerical integration ....
          Overall gridpoints after grid construction =        372380

 Iteration IRREP Converged      Max. Euclidean
                 roots          residual norm

   12       a        0        1.628871137946937D-05
 

 NOTE: Residual norms are larger than 1.00D-05 due to mgrid option!

 Eigenpairs written on logfile dipl_a   



 IRREP   Vector     Frequency            Euclidean residual norm

  a         1    0.000000000000000D+00    1.628871137946937D-05
 

                          -------------------
                           relaxed densities 
                          -------------------


    ----------------------------------------
     S+T+V CONTRIBUTIONS TO ENERGY GRADIENT 
    ----------------------------------------

 1e-integral 1st. derivatives will be neglected if expon. factor < 0.100000E-10


    -----------------------------------------------
     TWO ELECTRON CONTRIBUTIONS TO ENERGY GRADIENT 
    -----------------------------------------------

 setting up bound for integral derivative estimation

 increment for numerical differentiation : 0.00050000

 biggest AO integral is expected to be    21.668154127
 biggest cartesian 1st derivative AO integral is expected to be    83.347447328

 biggest 1-particle AO density matrix element is expected to be    3.2069800361

 core memory to be involved in 2e-gradient :
   symmetry shell pair data              :         1
   two particle density+dens. estimates  :      8556
   derivative integrals                  :      8498
   derivative integral bound             :     21780
   totally                               :     30276


 setting up bound for integral derivative estimation

 increment for numerical differentiation : 0.00050000

 biggest AO integral is expected to be    21.668154127
 biggest cartesian 1st derivative AO integral is expected to be    83.347447328

 2e-integral 1st. derivatives will be neglected if expon. factor < 0.100000E-06
 outer boundary for 2e-integral derivative neglection is 0.162053E-08

 Integrated ground state density     :   161.9999977612282    


          ------------------------------------------------
           cartesian gradient of the energy (hartree/bohr)
          ------------------------------------------------

  ATOM      1 o           2 c           3 c           4 c           5 c 
dE/dx -0.2307052D-03 -0.1492292D-02  0.8973134D-03  0.6612104D-03  0.3098669D-02
dE/dy  0.2438655D-03  0.1853922D-02  0.1040632D-02 -0.1256819D-02 -0.3243437D-03
dE/dz  0.6158711D-04 -0.2686550D-03  0.3865632D-04 -0.3970928D-03  0.2055969D-03

  ATOM      6 c           7 c           8 s           9 c          10 n 
dE/dx  0.1434171D-02 -0.2248897D-02  0.2455671D-03 -0.2283567D-02 -0.1383389D-02
dE/dy -0.3046486D-02 -0.2798112D-02 -0.2007754D-03 -0.1499310D-02  0.2298883D-02
dE/dz -0.1365790D-03  0.3838544D-03  0.2329581D-03  0.5357132D-04  0.7873693D-04

  ATOM     11 c          12 s          13 n          14 c          15 c 
dE/dx -0.1467673D-02 -0.7721197D-03  0.1489621D-02  0.1805887D-02  0.1687219D-02
dE/dy -0.4564301D-03  0.8066742D-04  0.1761595D-02 -0.4330726D-03 -0.3523070D-03
dE/dz -0.1609573D-03 -0.1364732D-03  0.1285089D-03 -0.7003188D-03 -0.5554754D-03

  ATOM     16 h          17 h          18 o          19 br         20 h 
dE/dx  0.1840659D-03 -0.7369483D-03 -0.1839458D-02 -0.1908979D-03 -0.2753913D-03
dE/dy -0.1719147D-03  0.4550132D-03 -0.2650919D-03  0.1130875D-03  0.1890945D-02
dE/dz  0.1552765D-03  0.8809647D-03  0.2403834D-03  0.1709112D-04 -0.8706268D-04

  ATOM     21 h 
dE/dx  0.1405522D-02
dE/dy  0.1051972D-02
dE/dz -0.3467485D-04
 
 resulting FORCE  (fx,fy,fz) = (-.121D-04,-.141D-04,-.104D-06)
 resulting MOMENT (mx,my,mz) = (-.140D-04,-.421D-04,-.658D-05)


 **********************************************************************
  |maximum component of gradient| : 0.30986694E-02  (atom  5 c )       
   gradient norm                  : 0.92933464E-02
 **********************************************************************

 exx =      -0.001534 eyy =       0.002147 ezz =      -0.001219
 eyz =      -0.001075 exz =       0.001550 exy =      -0.001572


 <getgrd> : data group $grad  is missing 

   ***  cartesian gradients written onto <gradient>  ***
 
 
 
 ==============================================================================
                           electrostatic moments
 ==============================================================================

 reference point for electrostatic moments:    0.00000   0.00000   0.00000

 
              nuc           gs,e       ->  gs,tot          excit     ->  total
 ------------------------------------------------------------------------------
                          charge      
 ------------------------------------------------------------------------------
         161.000000    -162.000000      -1.000000       0.000000      -1.000000
 
 ------------------------------------------------------------------------------
                       dipole moment  
 ------------------------------------------------------------------------------
   x    -632.881546     637.921099       5.039554      -1.249041       3.790513
   y     777.225922    -783.381627      -6.155706       1.272811      -4.882895
   z       0.513361      -0.522029      -0.008668       0.003641      -0.005027
 
   | dipole moment | =     6.1815 a.u. =    15.7118 debye 
 
 ------------------------------------------------------------------------------
                     quadrupole moment
 ------------------------------------------------------------------------------
  xx    7673.682615   -7848.157879    -174.475264       2.100595    -172.374669
  yy    5801.740841   -5938.361322    -136.620481      13.603260    -123.017222
  zz       5.698943     -98.515599     -92.816655       0.198926     -92.617730
  xy   -4803.473098    4838.142553      34.669455     -12.172536      22.496919
  xz      -4.949858       4.964055       0.014197      -0.022008      -0.007811
  yz       8.249778      -8.307262      -0.057485       0.024348      -0.033137
 
     1/3  trace=    -129.336540
     anisotropy=      79.869052
 
 ==============================================================================
 


    ------------------------------------------------------------------------
         total  cpu-time :  5 minutes and 46 seconds
         total wall-time :  5 minutes and 46 seconds
    ------------------------------------------------------------------------

   ****  egrad : all done  ****


    2018-02-09 21:42:46.768 

$dipole from egrad
  x     3.79051291561416    y    -4.88289522741479    z    -0.00502729696306    a.u.
   | dipole | =   15.7118704772  debye
/work/bdnguye2/luc_project/7_brluc/ex_geo_opt/save/numforce/KraftWerk/p085
