 operating system is UNIX !

 ridft (missouri) : TURBOMOLE V7.2 ( 21454 ) 4 Oct 2017 at 12:48:15
 Copyright (C) 2017 TURBOMOLE GmbH, Karlsruhe


    2018-02-09 21:49:22.846 



                                  r i d f t

                        DFT program with RI approximation 
                                for coulomb part 




                                                 
                                 References:     
                                                 
          TURBOMOLE:                             
              R. Ahlrichs, M. Baer, M. Haeser, H. Horn, and
              C. Koelmel
              Electronic structure calculations on workstation
              computers: the program system TURBOMOLE
              Chem. Phys. Lett. 162: 165 (1989)
          Density Functional:                              
              O. Treutler and R. Ahlrichs                      
              Efficient Molecular Numerical Integration Schemes
              J. Chem. Phys. 102: 346 (1995)                   
          Parallel Version:                                
              Performance of parallel TURBOMOLE for Density    
              Functional Calculations                          
              M. v. Arnim and R. Ahlrichs                      
              J. Comp. Chem. 19: 1746 (1998)                   
          RI-J Method:                                     
              Auxiliary Basis Sets to approximate Coulomb      
              Potentials                                       
              Chem. Phys. Lett. 240: 283 (1995)                
              K. Eichkorn, O. Treutler, H. Oehm, M. Haeser     
              and R. Ahlrichs                                  
              Chem. Phys. Lett. 242: 652 (1995)                
                                                           
              Auxiliary Basis Sets for Main Row Atoms and their
              Use to approximate Coulomb Potentials            
              K. Eichkorn, F. Weigend, O. Treutler and         
              R. Ahlrichs                                      
              Theo. Chem. Acc. 97: 119 (1997)                   
                                                           
              Accurate Coulomb-fitting basis sets for H to Rn 
              F. Weigend                                        
              Phys. Chem. Chem. Phys. 8: 1057 (2006)            
                                                           
          Multipole accelerated RI-J (MARI-J):             
              Fast evaluation of the Coulomb potential for     
              electron densities using multipole accelerated   
              resolution of identity approximation             
              M. Sierka, A. Hogekamp and R. Ahlrichs           
              J. Chem. Phys. 118: 9136 (2003)                  
          RI-JK Method:                                     
              A fully direct RI-HF algorithm: Implementation,
              optimised auxiliary basis sets, demonstration of
              accuracy and efficiency                         
              F. Weigend                                      
              Phys. Chem. Chem. Phys. 4: 4285 (2002)           
          Two-component HF and DFT with spin-orbit coupling:  
              Self-consistent treatment of spin-orbit         
              interactions with efficient Hartree-Fock and    
              density functional methods                      
              M. K. Armbruster, F. Weigend, C. van Wüllen and 
              W. Klopper                                      
              Phys. Chem. Chem. Phys. 10: 1748 (2008)         
          Relativistic all-electron 2c calculations           
              An efficient implementation of two-component    
              relativistic exact-decoupling methods for large 
              molecules                                       
              D. Peng, N. Middendorf, F. Weigend, M. Reiher   
              J. Chem. Phys. 138, 184105 (2013)               
                                         




              +--------------------------------------------------+
              |      general information about current run       |
              +--------------------------------------------------+

 
 PBE0 hybrid functional
 exchange:    3/4 (LDA+PBE) + 1/4 HF
 correlation: LDA (PW) + PBE
 A Hybrid-DFT calculation using the RI-J approximation will be carried out.
 Allocatable memory for RI due to $ricore (MB):                  5000


              +--------------------------------------------------+
              | Atomic coordinate, charge and isotop information |
              +--------------------------------------------------+

                    atomic coordinates            atom    charge  isotop
        -12.81557357    6.80706137    0.00287426    o      8.000     0
        -10.87035571    5.50607008   -0.00081984    c      6.000     0
         -8.32810896    6.66336464    0.00795883    c      6.000     0
         -6.09293200    5.18636564    0.00476758    c      6.000     0
         -6.19673085    2.52662171   -0.00193010    c      6.000     0
         -8.59825402    1.37122977   -0.00781742    c      6.000     0
        -10.80496166    2.77336274   -0.00998939    c      6.000     0
         -3.01796232    6.22145595    0.00678761    s     16.000     0
         -2.03753781    3.03448190   -0.00157655    c      6.000     0
         -3.85394177    1.35463048   -0.00806312    n      7.000     0
          0.62768572    2.54765211    0.00230669    c      6.000     0
          1.62071421   -0.65192437   -0.00871233    s     16.000     0
          2.36820633    4.31165449    0.00353495    n      7.000     0
          4.77586907    3.37634181    0.00093117    c      6.000     0
          4.85469796    0.44496223   -0.00767255    c      6.000     0
          5.88502439   -0.23773922    1.67622240    h      1.000     0
          5.87967434   -0.22172426   -1.69481722    h      1.000     0
          6.72644309    4.59811305    0.00730752    o      8.000     0
         -8.16413124   10.16935038    0.01818146    br    35.000     0
         -8.66617946   -0.70184768   -0.02031522    h      1.000     0
        -12.64561475    1.83497169   -0.00918144    h      1.000     0
 
       center of nuclear mass  :   -4.07555867    5.04357287    0.00388765
       center of nuclear charge:   -3.93033925    4.82733873    0.00325572

              +--------------------------------------------------+
              |               basis set information              |
              +--------------------------------------------------+

              we will work with the 1s 3p 5d 7f 9g ... basis set
              ...i.e. with spherical basis functions...

   type   atoms  prim   cont   basis
   ---------------------------------------------------------------------------
    o        2     24     14   def2-SV(P)   [3s2p1d|7s4p1d]
    c       10     24     14   def2-SV(P)   [3s2p1d|7s4p1d]
    s        2     36     18   def2-SV(P)   [4s3p1d|10s7p1d]
    n        2     24     14   def2-SV(P)   [3s2p1d|7s4p1d]
    h        4      4      2   def2-SV(P)   [2s|4s]
    br       1     74     32   def2-SV(P)   [5s4p3d|14s10p6d]
   ---------------------------------------------------------------------------
   total:   21    498    272
   ---------------------------------------------------------------------------

   total number of primitive shells          :   88
   total number of contracted shells         :  120
   total number of cartesian basis functions :  291
   total number of SCF-basis functions       :  272


 integral neglect threshold       :  0.11E-10
 integral storage threshold THIZE :  0.10E-04
 integral storage threshold THIME :         5

 RI-J AUXILIARY BASIS SET information:

              we will work with the 1s 3p 5d 7f 9g ... basis set
              ...i.e. with spherical basis functions...

   type   atoms  prim   cont   basis
   ---------------------------------------------------------------------------
    o        2     70     49   def2-SV(P)   [6s4p3d1f1g|12s5p4d2f1g]
    c       10     70     49   def2-SV(P)   [6s4p3d1f1g|12s5p4d2f1g]
    s        2     77     51   def2-SV(P)   [8s4p3d1f1g|14s5p5d2f1g]
    n        2     70     49   def2-SV(P)   [6s4p3d1f1g|12s5p4d2f1g]
    h        4     16     11   def2-SV(P)   [3s1p1d|5s2p1d]
    br       1     89     58   def2-SV(P)   [8s4p3d2f1g|19s5p5d3f1g]
   ---------------------------------------------------------------------------
   total:   21   1287    890
   ---------------------------------------------------------------------------

   total number of primitive shells          :  140
   total number of contracted shells         :  282
   total number of cartesian basis functions : 1101
   total number of SCF-basis functions       :  890


 symmetry group of the molecule :   c1 

 the group has the following generators :
   c1(z)

    1 symmetry operations found

 there are 1 real representations :   a   

 maximum number of shells which are related by symmetry :  1


    mo occupation :
   irrep   mo's   occupied
    a      272       81
 
 number of basis functions   :                    272
 number of occupied orbitals :                     81
 
  
           ------------------
           density functional
           ------------------
 PBE0 hybrid functional
 exchange:    3/4 (LDA+PBE) + 1/4 HF
 correlation: LDA (PW) + PBE

 iterations will be done with small grid
  
 spherical integration : Lebedev's spherical grid
 spherical gridsize    :                     5
    i.e. gridpoints    :                   590
 value for diffuse not defined
 radial integration    : Chebyshev 2nd kind (scaling 3)
 radial gridsize       :                     8
 integration cells     :                    21
 partition function    : becke
 partition sharpness   :                     3
  

 biggest AO integral is expected to be    21.668154127
  
           ------------------------
               RI-J - INFORMATION
           ------------------------
 Contributions to RI integral batches: 
  neglected integral batches:                  2258
  direct contribution:                            0
  memory contribution:                  5002
 Memory core needed for (P|Q) and Cholesky      7 MByte
 Memory core minimum needed except of (P|Q)     1 MByte
 Total minimum memory core needed (sum)         7 MByte
  
 ****************************************
 Memory allocated for RI-J   249 MByte
 ****************************************
                                            

          ------------------------
          nuclear repulsion energy  :   1710.55894340    
          ------------------------


         -----------------
         -S,T+V- integrals
         -----------------

 1e-integrals will be neglected if expon. factor < 0.114844E-11
 
   Difference densities algorithm switched on.
   The maximal number of linear combinations of
   difference densities is                    20 .

 DIIS switched on: error vector is FDS-SDF
 Max. Iterations for DIIS is     :   4
 DIIS matrix (see manual) 
    Scaling factor of diagonals  :  1.200
    threshold for scaling factor :  0.000

 scf convergence criterion : increment of total energy < .1000000D-06
                  and increment of one-electron energy < .1000000D-03

  MOs are in ASCII format !


 automatic virtual orbital shift switched on 
      shift if e(lumo)-e(homo) < 0.10000000    


 reading orbital data $scfmo  from file mos
 orbital characterization : scfconv=7

 dump of DSCF restart information has been disabled !


 Starting SCF iterations

          Overall gridpoints after grid construction =        122139

 ITERATION  ENERGY          1e-ENERGY        2e-ENERGY     NORM[dD(SAO)]  TOL
   1  -4011.7252150430    -8981.9798135     3259.6956551    0.000D+00 0.115D-10
                            Exc = -172.722304465     Coul =  3488.07553932    
                            exK = -55.6575797805    
                              N = 162.00000489    
                            current damping = 0.700
 
          max. resid. norm for Fia-block=  1.914D-03 for orbital      3a         
          max. resid. fock norm         =  5.208D-03 for orbital    199a         

 ITERATION  ENERGY          1e-ENERGY        2e-ENERGY     NORM[dD(SAO)]  TOL
   2  -4011.7252439238    -8981.9690816     3259.6848943    0.165D-01 0.726D-11
                            Exc = -172.721420722      Eck =  3432.40631500    
                              N = 162.00000489    
                            current damping = 0.650
 
          Norm of current diis error: 0.54719E-02
          max. resid. norm for Fia-block=  7.878D-04 for orbital      3a         
          max. resid. fock norm         =  1.981D-03 for orbital    200a         

 ITERATION  ENERGY          1e-ENERGY        2e-ENERGY     NORM[dD(SAO)]  TOL
   3  -4011.7252494589    -8981.9715699     3259.6873771    0.437D-02 0.563D-11
                            Exc = -172.721702373      Eck =  3432.40907943    
                              N = 162.00000489    
                            current damping = 0.600
 
          Norm of current diis error: 0.35375E-02
          max. resid. norm for Fia-block=  3.103D-04 for orbital      3a         
          max. resid. fock norm         =  7.699D-04 for orbital    200a         

 ITERATION  ENERGY          1e-ENERGY        2e-ENERGY     NORM[dD(SAO)]  TOL
   4  -4011.7252515997    -8981.9706066     3259.6864116    0.151D-02 0.518D-11
                            Exc = -172.721625776      Eck =  3432.40803736    
                              N = 162.00000488    
                            current damping = 0.650
 
          Norm of current diis error: 0.11564E-02
          max. resid. norm for Fia-block=  1.169D-04 for orbital      3a         
          max. resid. fock norm         =  3.088D-04 for orbital    260a         

 ITERATION  ENERGY          1e-ENERGY        2e-ENERGY     NORM[dD(SAO)]  TOL
   5  -4011.7252518465    -8981.9703094     3259.6861141    0.758D-03 0.497D-11
                            Exc = -172.721562039      Eck =  3432.40767616    
                              N = 162.00000488    
                            current damping = 0.500
 
          Norm of current diis error: 0.62580E-03
          max. resid. norm for Fia-block=  4.584D-05 for orbital      3a         
          max. resid. fock norm         =  1.243D-04 for orbital    200a         
          mo-orthogonalization: Cholesky decomposition

 ENERGY CONVERGED !

          Overall gridpoints after grid construction =        372375

 ITERATION  ENERGY          1e-ENERGY        2e-ENERGY     NORM[dD(SAO)]  TOL
   6  -4011.7252483653    -8981.9702761     3259.6860843    0.331D-03 0.482D-11
                            Exc = -172.721558067      Eck =  3432.40764236    
                              N = 161.99999780    
                            current damping = 0.350
 
          Norm of current diis error: 0.22451E-03
          max. resid. norm for Fia-block=  1.618D-05 for orbital     81a         
          max. resid. fock norm         =  4.612D-05 for orbital    260a         

 End of SCF iterations

   convergence criteria satisfied after     6 iterations


                  ------------------------------------------ 
                 |  total energy      =  -4011.72524836527  |
                  ------------------------------------------ 
                 :  kinetic energy    =   4002.27452468884  :
                 :  potential energy  =  -8013.99977305411  :
                 :  virial theorem    =      1.99764422459  :
                 :  wavefunction norm =      1.00000000000  :
                  .......................................... 


 <geterg> : there is no data group $energy 


 orbitals $scfmo  will be written to file mos

    irrep                 77a         78a         79a         80a         81a   
 eigenvalues H         -0.16883    -0.16315    -0.12860    -0.11975    -0.07390
            eV          -4.5942     -4.4396     -3.4994     -3.2587     -2.0110
 occupation              2.0000      2.0000      2.0000      2.0000      2.0000 

    irrep                 82a         83a         84a         85a         86a   
 eigenvalues H          0.01694     0.10828     0.11894     0.12775     0.13574
            eV           0.4611      2.9465      3.2365      3.4764      3.6936
 
 
 
 
 ==============================================================================
                           electrostatic moments
 ==============================================================================

 reference point for electrostatic moments:    0.00000   0.00000   0.00000

 
              nuc           elec       ->  total
 ------------------------------------------------------------------------------
                          charge      
 ------------------------------------------------------------------------------
         161.000000    -162.000000      -1.000000
 
 ------------------------------------------------------------------------------
                       dipole moment  
 ------------------------------------------------------------------------------
   x    -632.784620     637.831722       5.047102
   y     777.201535    -783.359626      -6.158090
   z       0.524172      -0.531059      -0.006887
 
   | dipole moment | =     7.9621 a.u. =    20.2377 debye 
 
 ------------------------------------------------------------------------------
                     quadrupole moment
 ------------------------------------------------------------------------------
  xx    7671.802607   -7846.399645    -174.597037
  yy    5801.631546   -5938.253203    -136.621656
  zz       5.699095     -98.522027     -92.822932
  xy   -4802.461073    4837.167206      34.706133
  xz      -4.747151       4.752636       0.005486
  yz       7.852667      -7.907298      -0.054632
 
     1/3  trace=    -134.680542
     anisotropy=      92.937006
 
 ==============================================================================
 


    ------------------------------------------------------------------------
         total  cpu-time :  51.32 seconds
         total wall-time :  51.33 seconds
    ------------------------------------------------------------------------

   ****  ridft : all done  ****


    2018-02-09 21:50:14.172 


 egrad (missouri) : TURBOMOLE V7.2 ( 21454 ) 4 Oct 2017 at 12:24:43
 Copyright (C) 2017 TURBOMOLE GmbH, Karlsruhe


    2018-02-09 21:50:14.182 




                               e g r a d

                             TURBOMOLE GmbH


             integral direct evaluation of excited state
                     and polarizability gradients
                 and first-order nonadiabatic couplings



          references (see also programs escf, dscf and ridft) 

          review 
          F. Furche and D. Rappoport,  
          "Density functional methods for excited states: 
          equilibrium structure and electronic spectra",
          ch. III of "Computational Photochemistry", ed. by 
          M. Olivucci, vol. 16 of "Theoretical and Computational 
          Chemistry", Elsevier, Amsterdam, 2005.

          nonorthonormal Krylov space methods 
          F. Furche, B. T. Krull, B. D. Nguyen, J. Kwon, 
          J. Chem. Phys. 144 (2016), 174105.

          RI-J method 
          D. Rappoport and F. Furche, 
          J. Chem. Phys. 122 (2005), 064105.

          Lagrangian method, implementation, benchmarks 
          F. Furche and R. Ahlrichs,
          J. Chem. Phys. 117 (2002), 7433;
          J. Chem. Phys. 121 (2004), 12772 (E).

          Polarizability derivatives, Raman intensities 
          D. Rappoport and F. Furche, 
          J. Chem. Phys. 126 (2007), 201104.

          First-order nonadiabatic couplings 
          R. Send and F. Furche, 
          J. Chem. Phys. 132 (2010), 044107.
                                     




              +--------------------------------------------------+
              | Atomic coordinate, charge and isotop information |
              +--------------------------------------------------+

                    atomic coordinates            atom    charge  isotop
        -12.81557357    6.80706137    0.00287426    o      8.000     0
        -10.87035571    5.50607008   -0.00081984    c      6.000     0
         -8.32810896    6.66336464    0.00795883    c      6.000     0
         -6.09293200    5.18636564    0.00476758    c      6.000     0
         -6.19673085    2.52662171   -0.00193010    c      6.000     0
         -8.59825402    1.37122977   -0.00781742    c      6.000     0
        -10.80496166    2.77336274   -0.00998939    c      6.000     0
         -3.01796232    6.22145595    0.00678761    s     16.000     0
         -2.03753781    3.03448190   -0.00157655    c      6.000     0
         -3.85394177    1.35463048   -0.00806312    n      7.000     0
          0.62768572    2.54765211    0.00230669    c      6.000     0
          1.62071421   -0.65192437   -0.00871233    s     16.000     0
          2.36820633    4.31165449    0.00353495    n      7.000     0
          4.77586907    3.37634181    0.00093117    c      6.000     0
          4.85469796    0.44496223   -0.00767255    c      6.000     0
          5.88502439   -0.23773922    1.67622240    h      1.000     0
          5.87967434   -0.22172426   -1.69481722    h      1.000     0
          6.72644309    4.59811305    0.00730752    o      8.000     0
         -8.16413124   10.16935038    0.01818146    br    35.000     0
         -8.66617946   -0.70184768   -0.02031522    h      1.000     0
        -12.64561475    1.83497169   -0.00918144    h      1.000     0
 
       center of nuclear mass  :   -4.07555867    5.04357287    0.00388765
       center of nuclear charge:   -3.93033925    4.82733873    0.00325572

              +--------------------------------------------------+
              |               basis set information              |
              +--------------------------------------------------+

              we will work with the 1s 3p 5d 7f 9g ... basis set
              ...i.e. with spherical basis functions...

   type   atoms  prim   cont   basis
   ---------------------------------------------------------------------------
    o        2     24     14   def2-SV(P)   [3s2p1d|7s4p1d]
    c       10     24     14   def2-SV(P)   [3s2p1d|7s4p1d]
    s        2     36     18   def2-SV(P)   [4s3p1d|10s7p1d]
    n        2     24     14   def2-SV(P)   [3s2p1d|7s4p1d]
    h        4      4      2   def2-SV(P)   [2s|4s]
    br       1     74     32   def2-SV(P)   [5s4p3d|14s10p6d]
   ---------------------------------------------------------------------------
   total:   21    498    272
   ---------------------------------------------------------------------------

   total number of primitive shells          :   88
   total number of contracted shells         :  120
   total number of cartesian basis functions :  291
   total number of SCF-basis functions       :  272


 residuum convergence criterium   :  0.10E-04


 integral neglect threshold       :  0.11E-10
 integral storage threshold THIZE :  0.10E-04
 integral storage threshold THIME :         5

 
             FOUND RI-J FLAG !
 
  
 AUXILIARY BASIS SET information:

              we will work with the 1s 3p 5d 7f 9g ... basis set
              ...i.e. with spherical basis functions...

   type   atoms  prim   cont   basis
   ---------------------------------------------------------------------------
    o        2     70     49   def2-SV(P)   [6s4p3d1f1g|12s5p4d2f1g]
    c       10     70     49   def2-SV(P)   [6s4p3d1f1g|12s5p4d2f1g]
    s        2     77     51   def2-SV(P)   [8s4p3d1f1g|14s5p5d2f1g]
    n        2     70     49   def2-SV(P)   [6s4p3d1f1g|12s5p4d2f1g]
    h        4     16     11   def2-SV(P)   [3s1p1d|5s2p1d]
    br       1     89     58   def2-SV(P)   [8s4p3d2f1g|19s5p5d3f1g]
   ---------------------------------------------------------------------------
   total:   21   1287    890
   ---------------------------------------------------------------------------

   total number of primitive shells          :  140
   total number of contracted shells         :  282
   total number of cartesian basis functions : 1101
   total number of SCF-basis functions       :  890

 RPA SINGLET-EXCITATION-CALCULATION 
 
             FOUND DFT-FLAG !
 

 symmetry group of the molecule :   c1 

 the group has the following generators :
   c1(z)

    1 symmetry operations found

 there are 1 real representations :   a   

 maximum number of shells which are related by symmetry :  1

 IRREP of excited state :   a   
 

 determining totally symmetric integral contributions 
    - equivalent to irreducible tensor elements - 
 which can be formed within each triple of representations :

             representation triple      contributions

              a     a     a               1

    mo occupation :
   irrep   mo's   occupied
    a      272       81
 
 number of basis functions   :                    272
 number of occupied orbitals :                     81
 
  
           ------------------
           density functional
           ------------------
 PBE0 hybrid functional
 exchange:    3/4 (LDA+PBE) + 1/4 HF
 correlation: LDA (PW) + PBE

 iterations will be done with small grid
  
 spherical integration : Lebedev's spherical grid
 spherical gridsize    :                     5
    i.e. gridpoints    :                   590
 value for diffuse not defined
 radial integration    : Chebyshev 2nd kind (scaling 3)
 radial gridsize       :                     8
 integration cells     :                    21
 partition function    : becke
 partition sharpness   :                     3
  
  
           ----------------------
               RI - INFORMATION
           ----------------------

 biggest AO integral is expected to be    21.668154127

 Threshold for integral neglect (rithr2):   0.11E-10
 Threshold for integral neglect (rithr1):   0.11E-10

 Contributions to RI integral batches: 
  neglected integral batches:                  2114
  direct contribution:                            0
  memory contribution:                  5146
 Core memory available (ricore)            5000 MiB
 Core memory needed for (P|Q) and Cholesky 7 MiB
 Core memory used for integrals            250 MiB
  
 ****************************************
 Memory allocated for RIDFT 257 MiB
 ****************************************
                                            
  MOs are in ASCII format !


 reading orbital data $scfmo  from file mos
 orbital characterization : scfconv=7
 preparing numerical integration ....
          Overall gridpoints after grid construction =        122139

 Calculating ground state density on molecular grid

 Integral of ground state density: N =   162.0000048954466    



 number of non-frozen orbitals          :   272
 number of non-frozen occupied orbitals :    81



                        -------------------
                         excitation vector 
                        -------------------


 dimension of super-tensorspace: 2

          IRREP   tensor space dimension   number of roots

           a             15471                   1

 maximum number of Davidson iterations set to   25


 machine precision: 2.22D-16


 logfile sing_a    will be constructed


                       Nonorthonormal Krylov Space Iteration


 total number of roots to be determined:   1


 maximum core memory set to  5000 MB,
 corresponding to     3796 vectors in CAO basis


 maximum number of simultaneously treated vectors (including degeneracy):        2


 Iteration IRREP Converged      Max. Euclidean
                 roots          residual norm

    1       a        0        3.134037016200492D-02
 
    2       a        0        9.413846534050906D-02
 
    3       a        0        3.942376067248050D-02
 
    4       a        0        1.684644142746480D-02
 
    5       a        0        6.206315304374764D-03
 
    6       a        0        2.845529632818792D-03
 
    7       a        0        1.362528324400484D-03
 
    8       a        0        5.867669426009917D-04
 
    9       a        0        2.600341029758029D-04
 
   10       a        0        1.018904171116286D-04
 
   11       a        0        5.634484713325368D-05
 
   12       a        0        1.569780813093493D-05
 
   13       a        1        6.546346379655968D-06
 

 converged!


 Switching to fine grid

 preparing numerical integration ....
          Overall gridpoints after grid construction =        372375

 Calculating ground state density on molecular grid

 Integral of ground state density: N =   161.9999978023308    



 Iteration IRREP Converged      Max. Euclidean
                 roots          residual norm

   14       a        1        9.317812346924663D-06
 

 converged!

 Eigenpairs written on logfile sing_a   



 IRREP   Vector     Eigenvalue           Euclidean residual norm

  a         1    8.307295538807659D-02    9.317812346924663D-06
 




                    Selection rules for point group c1  


 Subduction with respect to c1  :

    Polar vector representation: a                           

    Axial vector representation: a                           

    Symmetric second rank tensor representation: a                           




                            Ground state


 Total energy:                           -4011.725248365000    

 Charge:

               elec          nuc         total

          -162.000000   161.000000    -1.000000


 Electric dipole moment:

               elec          nuc         total   

    x      637.831722  -632.784620     5.047102    Norm:              7.962121
    y     -783.359626   777.201535    -6.158090
    z       -0.531059     0.524172    -0.006887    Norm / debye:     20.237845


 Electric quadrupole moment:

               elec          nuc         total   

   xx    -7846.399645  7671.802607  -174.597037
   yy    -5938.253203  5801.631546  -136.621656    1/3*trace:      -134.680542
   zz      -98.522027     5.699095   -92.822932
   xy     4837.167206 -4802.461073    34.706133
   xz        4.752636    -4.747151     0.005486    Anisotropy:       92.937006
   yz       -7.907298     7.852667    -0.054632



 ==============================================================================

                              I R R E P   a   

 ==============================================================================


 Excitation is electric dipole allowed

 Excitation is magnetic dipole allowed

 Excitation is electric quadrupole allowed




                         1 singlet a excitation


 Total energy:                           -4011.642175409612    

 Excitation energy:                      0.8307295538807659E-01

 Excitation energy / eV:                  2.260531100077688    

 Excitation energy / nm:                  548.4739581871152    

 Excitation energy / cm^(-1):             18232.40620495569    


 Oscillator strength:

    velocity representation:             0.3050188541080749    

    length representation:               0.3562938469805525    

    mixed representation:                0.3296553096433546    


 Rotatory strength:

    velocity representation:             0.5892622110884451E-05

    velocity rep. / 10^(-40)erg*cm^3:    0.3806917696250993    

    length representation:               0.5831334806524634E-05

    length rep. / 10^(-40)erg*cm^3:      0.3767323145788994    


 Dominant contributions:

      occ. orbital   energy / eV   virt. orbital     energy / eV   |coeff.|^2*100
       81 a              -2.01          82 a               0.46       91.6
 

 Change of electron number:

            -0.000000


 Electric transition dipole moment (velocity rep.):

    x        2.306511        Norm:                  2.346817
    y       -0.433078
    z       -0.000561        Norm / debye:          5.965058


 Electric transition dipole moment (length rep.):

    x        2.490072        Norm:                  2.536413
    y       -0.482629
    z       -0.000057        Norm / debye:          6.446967


 Magnetic transition dipole moment / i:

    x        0.000002        Norm:                  0.001069
    y       -0.000004
    z       -0.001069        Norm / Bohr mag.:      0.292866


 Electric quadrupole transition moment:

   xx      -18.707071
   yy       -4.447171        1/3*trace:            -7.681538
   zz        0.109628
   xy       11.243683
   xz        0.000741        Anisotropy:           25.852465
   yz       -0.003271
 

 Excited state no.    1 chosen for optimization


                       ----------------------
                        CPKS right-hand side 
                       ----------------------


          IRREP   tensor space dimension   number of roots

           a             15471                   1

                          ----------------
                           CPKS equations 
                          ----------------


 logfile dipl_a    will be constructed

 Switching to coarse grid

 preparing numerical integration ....
          Overall gridpoints after grid construction =        122139


                       Nonorthonormal Krylov Space Iteration


 total number of roots to be determined:   1


 maximum core memory set to  5000 MB,
 corresponding to     7544 vectors in CAO basis


 maximum number of simultaneously treated vectors (including degeneracy):        1


 Iteration IRREP Converged      Max. Euclidean
                 roots          residual norm

    1       a        0        1.085893625718269D-01
 
    2       a        0        4.847206356189960D-02
 
    3       a        0        2.235776804695115D-02
 
    4       a        0        9.468326710703509D-03
 
    5       a        0        3.570000444317553D-03
 
    6       a        0        1.244673838758880D-03
 
    7       a        0        4.797498584972392D-04
 
    8       a        0        1.651037833109157D-04
 
    9       a        0        8.262015979782548D-05
 
   10       a        0        1.921462793259692D-05
 
   11       a        1        8.153325696198718D-06
 

 converged!


 Switching to fine grid

 preparing numerical integration ....
          Overall gridpoints after grid construction =        372375

 Iteration IRREP Converged      Max. Euclidean
                 roots          residual norm

   12       a        0        1.631794320752146D-05
 

 NOTE: Residual norms are larger than 1.00D-05 due to mgrid option!

 Eigenpairs written on logfile dipl_a   



 IRREP   Vector     Frequency            Euclidean residual norm

  a         1    0.000000000000000D+00    1.631794320752146D-05
 

                          -------------------
                           relaxed densities 
                          -------------------


    ----------------------------------------
     S+T+V CONTRIBUTIONS TO ENERGY GRADIENT 
    ----------------------------------------

 1e-integral 1st. derivatives will be neglected if expon. factor < 0.100000E-10


    -----------------------------------------------
     TWO ELECTRON CONTRIBUTIONS TO ENERGY GRADIENT 
    -----------------------------------------------

 setting up bound for integral derivative estimation

 increment for numerical differentiation : 0.00050000

 biggest AO integral is expected to be    21.668154127
 biggest cartesian 1st derivative AO integral is expected to be    83.347447328

 biggest 1-particle AO density matrix element is expected to be    3.2070279807

 core memory to be involved in 2e-gradient :
   symmetry shell pair data              :         1
   two particle density+dens. estimates  :      8556
   derivative integrals                  :      8498
   derivative integral bound             :     21780
   totally                               :     30276


 setting up bound for integral derivative estimation

 increment for numerical differentiation : 0.00050000

 biggest AO integral is expected to be    21.668154127
 biggest cartesian 1st derivative AO integral is expected to be    83.347447328

 2e-integral 1st. derivatives will be neglected if expon. factor < 0.100000E-06
 outer boundary for 2e-integral derivative neglection is 0.162048E-08

 Integrated ground state density     :   161.9999978023293    


          ------------------------------------------------
           cartesian gradient of the energy (hartree/bohr)
          ------------------------------------------------

  ATOM      1 o           2 c           3 c           4 c           5 c 
dE/dx -0.1152789D-02 -0.4515350D-04  0.9213076D-03  0.1763708D-02 -0.2050787D-02
dE/dy  0.4518290D-03 -0.9508600D-03  0.6017881D-03 -0.8967281D-03 -0.4566518D-03
dE/dz  0.7905868D-04 -0.2251467D-03  0.2016877D-03 -0.1058192D-03  0.2079440D-03

  ATOM      6 c           7 c           8 s           9 c          10 n 
dE/dx  0.2375031D-03 -0.1010896D-02 -0.1080978D-02  0.2194252D-02  0.5256723D-03
dE/dy  0.1989496D-02  0.5373490D-03  0.6912963D-03  0.1399095D-02 -0.1597830D-02
dE/dz  0.4313076D-03 -0.3531357D-03 -0.5700323D-04 -0.1266287D-03 -0.1780271D-03

  ATOM     11 c          12 s          13 n          14 c          15 c 
dE/dx -0.7290568D-03 -0.7446161D-03 -0.2432546D-03 -0.1929916D-03  0.1317752D-02
dE/dy -0.2004698D-02  0.5996932D-03  0.1189041D-02 -0.1006820D-03  0.1144429D-03
dE/dz  0.4305567D-03 -0.4095222D-04 -0.9004599D-04 -0.3507737D-03 -0.1267632D-02

  ATOM     16 h          17 h          18 o          19 br         20 h 
dE/dx  0.2955519D-03 -0.5285788D-03 -0.2032494D-03 -0.1010887D-03  0.3156145D-03
dE/dy -0.5362798D-03  0.2324815D-03 -0.1422765D-03  0.6346753D-03 -0.1655129D-02
dE/dz  0.6315766D-03  0.7556353D-03  0.1225629D-03 -0.2491311D-04 -0.2077227D-03

  ATOM     21 h 
dE/dx  0.4990046D-03
dE/dy -0.1134329D-03
dE/dz  0.1674158D-03
 
 resulting FORCE  (fx,fy,fz) = (-.131D-04,-.134D-04,-.554D-07)
 resulting MOMENT (mx,my,mz) = (-.601D-04,0.142D-04,0.122D-03)


 **********************************************************************
  |maximum component of gradient| : 0.21942524E-02  (atom  9 c )       
   gradient norm                  : 0.67131396E-02
 **********************************************************************

 exx =       0.007479 eyy =       0.012815 ezz =      -0.000206
 eyz =      -0.001287 exz =       0.001373 exy =      -0.003470


 <getgrd> : data group $grad  is missing 

   ***  cartesian gradients written onto <gradient>  ***
 
 
 
 ==============================================================================
                           electrostatic moments
 ==============================================================================

 reference point for electrostatic moments:    0.00000   0.00000   0.00000

 
              nuc           gs,e       ->  gs,tot          excit     ->  total
 ------------------------------------------------------------------------------
                          charge      
 ------------------------------------------------------------------------------
         161.000000    -162.000000      -1.000000       0.000000      -1.000000
 
 ------------------------------------------------------------------------------
                       dipole moment  
 ------------------------------------------------------------------------------
   x    -632.784620     637.831722       5.047102      -1.246904       3.800198
   y     777.201535    -783.359626      -6.158090       1.274869      -4.883221
   z       0.524172      -0.531059      -0.006887       0.003221      -0.003666
 
   | dipole moment | =     6.1877 a.u. =    15.7275 debye 
 
 ------------------------------------------------------------------------------
                     quadrupole moment
 ------------------------------------------------------------------------------
  xx    7671.802607   -7846.399645    -174.597037       2.119987    -172.477050
  yy    5801.631546   -5938.253203    -136.621656      13.620401    -123.001256
  zz       5.699095     -98.522027     -92.822932       0.200227     -92.622705
  xy   -4802.461073    4837.167206      34.706133     -12.176986      22.529147
  xz      -4.747151       4.752636       0.005486      -0.029489      -0.024003
  yz       7.852667      -7.907298      -0.054632       0.023877      -0.030755
 
     1/3  trace=    -129.367004
     anisotropy=      79.977531
 
 ==============================================================================
 


    ------------------------------------------------------------------------
         total  cpu-time :  5 minutes and 38 seconds
         total wall-time :  5 minutes and 38 seconds
    ------------------------------------------------------------------------

   ****  egrad : all done  ****


    2018-02-09 21:55:52.587 

$dipole from egrad
  x     3.80019797087994    y    -4.88322148915779    z    -0.00366607473610    a.u.
   | dipole | =   15.7276298670  debye
/work/bdnguye2/luc_project/7_brluc/ex_geo_opt/save/numforce/KraftWerk/p087
