 operating system is UNIX !

 ridft (missouri) : TURBOMOLE V7.2 ( 21454 ) 4 Oct 2017 at 12:48:15
 Copyright (C) 2017 TURBOMOLE GmbH, Karlsruhe


    2018-02-09 22:16:14.388 



                                  r i d f t

                        DFT program with RI approximation 
                                for coulomb part 




                                                 
                                 References:     
                                                 
          TURBOMOLE:                             
              R. Ahlrichs, M. Baer, M. Haeser, H. Horn, and
              C. Koelmel
              Electronic structure calculations on workstation
              computers: the program system TURBOMOLE
              Chem. Phys. Lett. 162: 165 (1989)
          Density Functional:                              
              O. Treutler and R. Ahlrichs                      
              Efficient Molecular Numerical Integration Schemes
              J. Chem. Phys. 102: 346 (1995)                   
          Parallel Version:                                
              Performance of parallel TURBOMOLE for Density    
              Functional Calculations                          
              M. v. Arnim and R. Ahlrichs                      
              J. Comp. Chem. 19: 1746 (1998)                   
          RI-J Method:                                     
              Auxiliary Basis Sets to approximate Coulomb      
              Potentials                                       
              Chem. Phys. Lett. 240: 283 (1995)                
              K. Eichkorn, O. Treutler, H. Oehm, M. Haeser     
              and R. Ahlrichs                                  
              Chem. Phys. Lett. 242: 652 (1995)                
                                                           
              Auxiliary Basis Sets for Main Row Atoms and their
              Use to approximate Coulomb Potentials            
              K. Eichkorn, F. Weigend, O. Treutler and         
              R. Ahlrichs                                      
              Theo. Chem. Acc. 97: 119 (1997)                   
                                                           
              Accurate Coulomb-fitting basis sets for H to Rn 
              F. Weigend                                        
              Phys. Chem. Chem. Phys. 8: 1057 (2006)            
                                                           
          Multipole accelerated RI-J (MARI-J):             
              Fast evaluation of the Coulomb potential for     
              electron densities using multipole accelerated   
              resolution of identity approximation             
              M. Sierka, A. Hogekamp and R. Ahlrichs           
              J. Chem. Phys. 118: 9136 (2003)                  
          RI-JK Method:                                     
              A fully direct RI-HF algorithm: Implementation,
              optimised auxiliary basis sets, demonstration of
              accuracy and efficiency                         
              F. Weigend                                      
              Phys. Chem. Chem. Phys. 4: 4285 (2002)           
          Two-component HF and DFT with spin-orbit coupling:  
              Self-consistent treatment of spin-orbit         
              interactions with efficient Hartree-Fock and    
              density functional methods                      
              M. K. Armbruster, F. Weigend, C. van Wüllen and 
              W. Klopper                                      
              Phys. Chem. Chem. Phys. 10: 1748 (2008)         
          Relativistic all-electron 2c calculations           
              An efficient implementation of two-component    
              relativistic exact-decoupling methods for large 
              molecules                                       
              D. Peng, N. Middendorf, F. Weigend, M. Reiher   
              J. Chem. Phys. 138, 184105 (2013)               
                                         




              +--------------------------------------------------+
              |      general information about current run       |
              +--------------------------------------------------+

 
 PBE0 hybrid functional
 exchange:    3/4 (LDA+PBE) + 1/4 HF
 correlation: LDA (PW) + PBE
 A Hybrid-DFT calculation using the RI-J approximation will be carried out.
 Allocatable memory for RI due to $ricore (MB):                  5000


              +--------------------------------------------------+
              | Atomic coordinate, charge and isotop information |
              +--------------------------------------------------+

                    atomic coordinates            atom    charge  isotop
        -12.81480976    6.80755856    0.00244741    o      8.000     0
        -10.86771548    5.50194678    0.00026141    c      6.000     0
         -8.33158310    6.65900821    0.01097319    c      6.000     0
         -6.09870996    5.19338680    0.00521836    c      6.000     0
         -6.19428082    2.53327924   -0.00673474    c      6.000     0
         -8.59360100    1.36581163   -0.01001098    c      6.000     0
        -10.80510973    2.76874521   -0.00720334    c      6.000     0
         -3.01930400    6.22249333    0.00767074    s     16.000     0
         -2.03740789    3.03404414    0.00065078    c      6.000     0
         -3.85422895    1.35664600   -0.00473832    n      7.000     0
          0.62466726    2.55197929   -0.00389555    c      6.000     0
          1.61950632   -0.65347050   -0.01548640    s     16.000     0
          2.37391505    4.30739397    0.00948815    n      7.000     0
          4.77922185    3.37575659    0.00699758    c      6.000     0
          4.84999244    0.44652457   -0.01002380    c      6.000     0
          5.88243539   -0.23700746    1.67456934    h      1.000     0
          5.88040610   -0.22007120   -1.69716848    h      1.000     0
          6.72903208    4.59340753    0.00574518    o      8.000     0
         -8.16471646   10.16328397    0.02413465    br    35.000     0
         -8.66953223   -0.69613896   -0.01605470    h      1.000     0
        -12.64716089    1.84174576   -0.00918144    h      1.000     0
 
       center of nuclear mass  :   -4.07571883    5.04179189    0.00506412
       center of nuclear charge:   -3.93050477    4.82575612    0.00427338

              +--------------------------------------------------+
              |               basis set information              |
              +--------------------------------------------------+

              we will work with the 1s 3p 5d 7f 9g ... basis set
              ...i.e. with spherical basis functions...

   type   atoms  prim   cont   basis
   ---------------------------------------------------------------------------
    o        2     24     14   def2-SV(P)   [3s2p1d|7s4p1d]
    c       10     24     14   def2-SV(P)   [3s2p1d|7s4p1d]
    s        2     36     18   def2-SV(P)   [4s3p1d|10s7p1d]
    n        2     24     14   def2-SV(P)   [3s2p1d|7s4p1d]
    h        4      4      2   def2-SV(P)   [2s|4s]
    br       1     74     32   def2-SV(P)   [5s4p3d|14s10p6d]
   ---------------------------------------------------------------------------
   total:   21    498    272
   ---------------------------------------------------------------------------

   total number of primitive shells          :   88
   total number of contracted shells         :  120
   total number of cartesian basis functions :  291
   total number of SCF-basis functions       :  272


 integral neglect threshold       :  0.11E-10
 integral storage threshold THIZE :  0.10E-04
 integral storage threshold THIME :         5

 RI-J AUXILIARY BASIS SET information:

              we will work with the 1s 3p 5d 7f 9g ... basis set
              ...i.e. with spherical basis functions...

   type   atoms  prim   cont   basis
   ---------------------------------------------------------------------------
    o        2     70     49   def2-SV(P)   [6s4p3d1f1g|12s5p4d2f1g]
    c       10     70     49   def2-SV(P)   [6s4p3d1f1g|12s5p4d2f1g]
    s        2     77     51   def2-SV(P)   [8s4p3d1f1g|14s5p5d2f1g]
    n        2     70     49   def2-SV(P)   [6s4p3d1f1g|12s5p4d2f1g]
    h        4     16     11   def2-SV(P)   [3s1p1d|5s2p1d]
    br       1     89     58   def2-SV(P)   [8s4p3d2f1g|19s5p5d3f1g]
   ---------------------------------------------------------------------------
   total:   21   1287    890
   ---------------------------------------------------------------------------

   total number of primitive shells          :  140
   total number of contracted shells         :  282
   total number of cartesian basis functions : 1101
   total number of SCF-basis functions       :  890


 symmetry group of the molecule :   c1 

 the group has the following generators :
   c1(z)

    1 symmetry operations found

 there are 1 real representations :   a   

 maximum number of shells which are related by symmetry :  1


    mo occupation :
   irrep   mo's   occupied
    a      272       81
 
 number of basis functions   :                    272
 number of occupied orbitals :                     81
 
  
           ------------------
           density functional
           ------------------
 PBE0 hybrid functional
 exchange:    3/4 (LDA+PBE) + 1/4 HF
 correlation: LDA (PW) + PBE

 iterations will be done with small grid
  
 spherical integration : Lebedev's spherical grid
 spherical gridsize    :                     5
    i.e. gridpoints    :                   590
 value for diffuse not defined
 radial integration    : Chebyshev 2nd kind (scaling 3)
 radial gridsize       :                     8
 integration cells     :                    21
 partition function    : becke
 partition sharpness   :                     3
  

 biggest AO integral is expected to be    21.668154127
  
           ------------------------
               RI-J - INFORMATION
           ------------------------
 Contributions to RI integral batches: 
  neglected integral batches:                  2258
  direct contribution:                            0
  memory contribution:                  5002
 Memory core needed for (P|Q) and Cholesky      7 MByte
 Memory core minimum needed except of (P|Q)     1 MByte
 Total minimum memory core needed (sum)         7 MByte
  
 ****************************************
 Memory allocated for RI-J   249 MByte
 ****************************************
                                            

          ------------------------
          nuclear repulsion energy  :   1710.97293070    
          ------------------------


         -----------------
         -S,T+V- integrals
         -----------------

 1e-integrals will be neglected if expon. factor < 0.114844E-11
 
   Difference densities algorithm switched on.
   The maximal number of linear combinations of
   difference densities is                    20 .

 DIIS switched on: error vector is FDS-SDF
 Max. Iterations for DIIS is     :   4
 DIIS matrix (see manual) 
    Scaling factor of diagonals  :  1.200
    threshold for scaling factor :  0.000

 scf convergence criterion : increment of total energy < .1000000D-06
                  and increment of one-electron energy < .1000000D-03

  MOs are in ASCII format !


 automatic virtual orbital shift switched on 
      shift if e(lumo)-e(homo) < 0.10000000    


 reading orbital data $scfmo  from file mos
 orbital characterization : scfconv=7

 dump of DSCF restart information has been disabled !


 Starting SCF iterations

          Overall gridpoints after grid construction =        122128

 ITERATION  ENERGY          1e-ENERGY        2e-ENERGY     NORM[dD(SAO)]  TOL
   1  -4011.7255270784    -8982.7952234     3260.0967656    0.000D+00 0.115D-10
                            Exc = -172.725123895     Coul =  3488.48050822    
                            exK = -55.6586187210    
                              N = 162.00000408    
                            current damping = 0.700
 
          max. resid. norm for Fia-block=  2.738D-03 for orbital      1a         
          max. resid. fock norm         =  5.619D-03 for orbital      1a         

 ITERATION  ENERGY          1e-ENERGY        2e-ENERGY     NORM[dD(SAO)]  TOL
   2  -4011.7255717419    -8982.7871014     3260.0885990    0.198D-01 0.726D-11
                            Exc = -172.724471029      Eck =  3432.81307000    
                              N = 162.00000412    
                            current damping = 0.650
 
          Norm of current diis error: 0.69726E-02
          max. resid. norm for Fia-block=  1.128D-03 for orbital      1a         
          max. resid. fock norm         =  2.314D-03 for orbital      1a         

 ITERATION  ENERGY          1e-ENERGY        2e-ENERGY     NORM[dD(SAO)]  TOL
   3  -4011.7255796505    -8982.7827860     3260.0842757    0.684D-02 0.570D-11
                            Exc = -172.725275011      Eck =  3432.80955071    
                              N = 162.00000410    
                            current damping = 0.500
 
          Norm of current diis error: 0.47470E-02
          max. resid. norm for Fia-block=  4.444D-04 for orbital      1a         
          max. resid. fock norm         =  9.115D-04 for orbital      1a         

 ITERATION  ENERGY          1e-ENERGY        2e-ENERGY     NORM[dD(SAO)]  TOL
   4  -4011.7255833444    -8982.7916448     3260.0931308    0.223D-02 0.522D-11
                            Exc = -172.724810259      Eck =  3432.81794104    
                              N = 162.00000414    
                            current damping = 0.550
 
          Norm of current diis error: 0.17643E-02
          max. resid. norm for Fia-block=  1.559D-04 for orbital     80a         
          max. resid. fock norm         =  3.234D-04 for orbital    258a         

 ITERATION  ENERGY          1e-ENERGY        2e-ENERGY     NORM[dD(SAO)]  TOL
   5  -4011.7255838794    -8982.7859904     3260.0874759    0.105D-02 0.502D-11
                            Exc = -172.724899237      Eck =  3432.81237511    
                              N = 162.00000413    
                            current damping = 0.600
 
          Norm of current diis error: 0.82571E-03
          max. resid. norm for Fia-block=  6.163D-05 for orbital     81a         
          max. resid. fock norm         =  1.336D-04 for orbital    223a         
          mo-orthogonalization: Cholesky decomposition

 ITERATION  ENERGY          1e-ENERGY        2e-ENERGY     NORM[dD(SAO)]  TOL
   6  -4011.7255842315    -8982.7864528     3260.0879379    0.528D-03 0.491D-11
                            Exc = -172.724863469      Eck =  3432.81280135    
                              N = 162.00000415    
                            current damping = 0.650
 
          Norm of current diis error: 0.36594E-03
          max. resid. norm for Fia-block=  2.091D-05 for orbital     59a         
          max. resid. fock norm         =  5.778D-05 for orbital    258a         

 ENERGY CONVERGED !

          Overall gridpoints after grid construction =        372367

 ITERATION  ENERGY          1e-ENERGY        2e-ENERGY     NORM[dD(SAO)]  TOL
   7  -4011.7255808648    -8982.7867387     3260.0882271    0.160D-03 0.481D-11
                            Exc = -172.724894606      Eck =  3432.81312173    
                              N = 161.99999765    
                            current damping = 0.500
 
          Norm of current diis error: 0.14558E-03
          max. resid. norm for Fia-block=  8.960D-06 for orbital     79a         
          max. resid. fock norm         =  1.747D-05 for orbital    196a         

 End of SCF iterations

   convergence criteria satisfied after     7 iterations


                  ------------------------------------------ 
                 |  total energy      =  -4011.72558086480  |
                  ------------------------------------------ 
                 :  kinetic energy    =   4002.28997615176  :
                 :  potential energy  =  -8014.01555701656  :
                 :  virial theorem    =      1.99764799348  :
                 :  wavefunction norm =      1.00000000000  :
                  .......................................... 


 <geterg> : there is no data group $energy 


 orbitals $scfmo  will be written to file mos

    irrep                 77a         78a         79a         80a         81a   
 eigenvalues H         -0.16902    -0.16279    -0.12889    -0.11976    -0.07433
            eV          -4.5992     -4.4298     -3.5073     -3.2590     -2.0225
 occupation              2.0000      2.0000      2.0000      2.0000      2.0000 

    irrep                 82a         83a         84a         85a         86a   
 eigenvalues H          0.01667     0.10809     0.11921     0.12805     0.13548
            eV           0.4536      2.9414      3.2438      3.4845      3.6866
 
 
 
 
 ==============================================================================
                           electrostatic moments
 ==============================================================================

 reference point for electrostatic moments:    0.00000   0.00000   0.00000

 
              nuc           elec       ->  total
 ------------------------------------------------------------------------------
                          charge      
 ------------------------------------------------------------------------------
         161.000000    -162.000000      -1.000000
 
 ------------------------------------------------------------------------------
                       dipole moment  
 ------------------------------------------------------------------------------
   x    -632.811268     637.840202       5.028934
   y     776.946736    -783.094032      -6.147296
   z       0.688014      -0.696013      -0.007999
 
   | dipole moment | =     7.9423 a.u. =    20.1872 debye 
 
 ------------------------------------------------------------------------------
                     quadrupole moment
 ------------------------------------------------------------------------------
  xx    7672.281499   -7846.850541    -174.569042
  yy    5796.935873   -5933.487346    -136.551473
  zz       5.714232     -98.529817     -92.815585
  xy   -4800.926817    4835.631002      34.704185
  xz      -6.835650       6.855781       0.020130
  yz      10.439709     -10.508549      -0.068840
 
     1/3  trace=    -134.645367
     anisotropy=      92.919602
 
 ==============================================================================
 


    ------------------------------------------------------------------------
         total  cpu-time :  1 minutes and  2 seconds
         total wall-time :  1 minutes and  2 seconds
    ------------------------------------------------------------------------

   ****  ridft : all done  ****


    2018-02-09 22:17:16.808 


 egrad (missouri) : TURBOMOLE V7.2 ( 21454 ) 4 Oct 2017 at 12:24:43
 Copyright (C) 2017 TURBOMOLE GmbH, Karlsruhe


    2018-02-09 22:17:16.826 




                               e g r a d

                             TURBOMOLE GmbH


             integral direct evaluation of excited state
                     and polarizability gradients
                 and first-order nonadiabatic couplings



          references (see also programs escf, dscf and ridft) 

          review 
          F. Furche and D. Rappoport,  
          "Density functional methods for excited states: 
          equilibrium structure and electronic spectra",
          ch. III of "Computational Photochemistry", ed. by 
          M. Olivucci, vol. 16 of "Theoretical and Computational 
          Chemistry", Elsevier, Amsterdam, 2005.

          nonorthonormal Krylov space methods 
          F. Furche, B. T. Krull, B. D. Nguyen, J. Kwon, 
          J. Chem. Phys. 144 (2016), 174105.

          RI-J method 
          D. Rappoport and F. Furche, 
          J. Chem. Phys. 122 (2005), 064105.

          Lagrangian method, implementation, benchmarks 
          F. Furche and R. Ahlrichs,
          J. Chem. Phys. 117 (2002), 7433;
          J. Chem. Phys. 121 (2004), 12772 (E).

          Polarizability derivatives, Raman intensities 
          D. Rappoport and F. Furche, 
          J. Chem. Phys. 126 (2007), 201104.

          First-order nonadiabatic couplings 
          R. Send and F. Furche, 
          J. Chem. Phys. 132 (2010), 044107.
                                     




              +--------------------------------------------------+
              | Atomic coordinate, charge and isotop information |
              +--------------------------------------------------+

                    atomic coordinates            atom    charge  isotop
        -12.81480976    6.80755856    0.00244741    o      8.000     0
        -10.86771548    5.50194678    0.00026141    c      6.000     0
         -8.33158310    6.65900821    0.01097319    c      6.000     0
         -6.09870996    5.19338680    0.00521836    c      6.000     0
         -6.19428082    2.53327924   -0.00673474    c      6.000     0
         -8.59360100    1.36581163   -0.01001098    c      6.000     0
        -10.80510973    2.76874521   -0.00720334    c      6.000     0
         -3.01930400    6.22249333    0.00767074    s     16.000     0
         -2.03740789    3.03404414    0.00065078    c      6.000     0
         -3.85422895    1.35664600   -0.00473832    n      7.000     0
          0.62466726    2.55197929   -0.00389555    c      6.000     0
          1.61950632   -0.65347050   -0.01548640    s     16.000     0
          2.37391505    4.30739397    0.00948815    n      7.000     0
          4.77922185    3.37575659    0.00699758    c      6.000     0
          4.84999244    0.44652457   -0.01002380    c      6.000     0
          5.88243539   -0.23700746    1.67456934    h      1.000     0
          5.88040610   -0.22007120   -1.69716848    h      1.000     0
          6.72903208    4.59340753    0.00574518    o      8.000     0
         -8.16471646   10.16328397    0.02413465    br    35.000     0
         -8.66953223   -0.69613896   -0.01605470    h      1.000     0
        -12.64716089    1.84174576   -0.00918144    h      1.000     0
 
       center of nuclear mass  :   -4.07571883    5.04179189    0.00506412
       center of nuclear charge:   -3.93050477    4.82575612    0.00427338

              +--------------------------------------------------+
              |               basis set information              |
              +--------------------------------------------------+

              we will work with the 1s 3p 5d 7f 9g ... basis set
              ...i.e. with spherical basis functions...

   type   atoms  prim   cont   basis
   ---------------------------------------------------------------------------
    o        2     24     14   def2-SV(P)   [3s2p1d|7s4p1d]
    c       10     24     14   def2-SV(P)   [3s2p1d|7s4p1d]
    s        2     36     18   def2-SV(P)   [4s3p1d|10s7p1d]
    n        2     24     14   def2-SV(P)   [3s2p1d|7s4p1d]
    h        4      4      2   def2-SV(P)   [2s|4s]
    br       1     74     32   def2-SV(P)   [5s4p3d|14s10p6d]
   ---------------------------------------------------------------------------
   total:   21    498    272
   ---------------------------------------------------------------------------

   total number of primitive shells          :   88
   total number of contracted shells         :  120
   total number of cartesian basis functions :  291
   total number of SCF-basis functions       :  272


 residuum convergence criterium   :  0.10E-04


 integral neglect threshold       :  0.11E-10
 integral storage threshold THIZE :  0.10E-04
 integral storage threshold THIME :         5

 
             FOUND RI-J FLAG !
 
  
 AUXILIARY BASIS SET information:

              we will work with the 1s 3p 5d 7f 9g ... basis set
              ...i.e. with spherical basis functions...

   type   atoms  prim   cont   basis
   ---------------------------------------------------------------------------
    o        2     70     49   def2-SV(P)   [6s4p3d1f1g|12s5p4d2f1g]
    c       10     70     49   def2-SV(P)   [6s4p3d1f1g|12s5p4d2f1g]
    s        2     77     51   def2-SV(P)   [8s4p3d1f1g|14s5p5d2f1g]
    n        2     70     49   def2-SV(P)   [6s4p3d1f1g|12s5p4d2f1g]
    h        4     16     11   def2-SV(P)   [3s1p1d|5s2p1d]
    br       1     89     58   def2-SV(P)   [8s4p3d2f1g|19s5p5d3f1g]
   ---------------------------------------------------------------------------
   total:   21   1287    890
   ---------------------------------------------------------------------------

   total number of primitive shells          :  140
   total number of contracted shells         :  282
   total number of cartesian basis functions : 1101
   total number of SCF-basis functions       :  890

 RPA SINGLET-EXCITATION-CALCULATION 
 
             FOUND DFT-FLAG !
 

 symmetry group of the molecule :   c1 

 the group has the following generators :
   c1(z)

    1 symmetry operations found

 there are 1 real representations :   a   

 maximum number of shells which are related by symmetry :  1

 IRREP of excited state :   a   
 

 determining totally symmetric integral contributions 
    - equivalent to irreducible tensor elements - 
 which can be formed within each triple of representations :

             representation triple      contributions

              a     a     a               1

    mo occupation :
   irrep   mo's   occupied
    a      272       81
 
 number of basis functions   :                    272
 number of occupied orbitals :                     81
 
  
           ------------------
           density functional
           ------------------
 PBE0 hybrid functional
 exchange:    3/4 (LDA+PBE) + 1/4 HF
 correlation: LDA (PW) + PBE

 iterations will be done with small grid
  
 spherical integration : Lebedev's spherical grid
 spherical gridsize    :                     5
    i.e. gridpoints    :                   590
 value for diffuse not defined
 radial integration    : Chebyshev 2nd kind (scaling 3)
 radial gridsize       :                     8
 integration cells     :                    21
 partition function    : becke
 partition sharpness   :                     3
  
  
           ----------------------
               RI - INFORMATION
           ----------------------

 biggest AO integral is expected to be    21.668154127

 Threshold for integral neglect (rithr2):   0.11E-10
 Threshold for integral neglect (rithr1):   0.11E-10

 Contributions to RI integral batches: 
  neglected integral batches:                  2113
  direct contribution:                            0
  memory contribution:                  5147
 Core memory available (ricore)            5000 MiB
 Core memory needed for (P|Q) and Cholesky 7 MiB
 Core memory used for integrals            251 MiB
  
 ****************************************
 Memory allocated for RIDFT 257 MiB
 ****************************************
                                            
  MOs are in ASCII format !


 reading orbital data $scfmo  from file mos
 orbital characterization : scfconv=7
 preparing numerical integration ....
          Overall gridpoints after grid construction =        122128

 Calculating ground state density on molecular grid

 Integral of ground state density: N =   162.0000041487598    



 number of non-frozen orbitals          :   272
 number of non-frozen occupied orbitals :    81



                        -------------------
                         excitation vector 
                        -------------------


 dimension of super-tensorspace: 2

          IRREP   tensor space dimension   number of roots

           a             15471                   1

 maximum number of Davidson iterations set to   25


 machine precision: 2.22D-16


 logfile sing_a    will be constructed


                       Nonorthonormal Krylov Space Iteration


 total number of roots to be determined:   1


 maximum core memory set to  5000 MB,
 corresponding to     3796 vectors in CAO basis


 maximum number of simultaneously treated vectors (including degeneracy):        2


 Iteration IRREP Converged      Max. Euclidean
                 roots          residual norm

    1       a        0        3.006278517440065D-02
 
    2       a        0        2.221577026720994D-02
 
    3       a        0        8.104441408633244D-02
 
    4       a        0        2.364746136443814D-02
 
    5       a        0        1.008815237535448D-02
 
    6       a        0        4.191571667876555D-03
 
    7       a        0        1.866381261732795D-03
 
    8       a        0        8.313481103770156D-04
 
    9       a        0        3.866397053511267D-04
 
   10       a        0        1.597592088722704D-04
 
   11       a        0        7.760517575520550D-05
 
   12       a        0        2.896203389890470D-05
 
   13       a        1        8.050716559519532D-06
 

 converged!


 Switching to fine grid

 preparing numerical integration ....
          Overall gridpoints after grid construction =        372367

 Calculating ground state density on molecular grid

 Integral of ground state density: N =   161.9999976512258    



 Iteration IRREP Converged      Max. Euclidean
                 roots          residual norm

   14       a        0        1.029970759885112D-05
 

 NOTE: Residual norms are larger than 1.00D-05 due to mgrid option!

 Eigenpairs written on logfile sing_a   



 IRREP   Vector     Eigenvalue           Euclidean residual norm

  a         1    8.341946043398654D-02    1.029970759885112D-05
 




                    Selection rules for point group c1  


 Subduction with respect to c1  :

    Polar vector representation: a                           

    Axial vector representation: a                           

    Symmetric second rank tensor representation: a                           




                            Ground state


 Total energy:                           -4011.725580865000    

 Charge:

               elec          nuc         total

          -162.000000   161.000000    -1.000000


 Electric dipole moment:

               elec          nuc         total   

    x      637.840202  -632.811268     5.028934    Norm:              7.942260
    y     -783.094032   776.946736    -6.147296
    z       -0.696013     0.688014    -0.007999    Norm / debye:     20.187364


 Electric quadrupole moment:

               elec          nuc         total   

   xx    -7846.850541  7672.281499  -174.569042
   yy    -5933.487346  5796.935873  -136.551473    1/3*trace:      -134.645367
   zz      -98.529817     5.714232   -92.815585
   xy     4835.631002 -4800.926817    34.704185
   xz        6.855781    -6.835650     0.020130    Anisotropy:       92.919602
   yz      -10.508549    10.439709    -0.068840



 ==============================================================================

                              I R R E P   a   

 ==============================================================================


 Excitation is electric dipole allowed

 Excitation is magnetic dipole allowed

 Excitation is electric quadrupole allowed




                         1 singlet a excitation


 Total energy:                           -4011.642161404566    

 Excitation energy:                      0.8341946043398654E-01

 Excitation energy / eV:                  2.269959986156848    

 Excitation energy / nm:                  546.1957248699333    

 Excitation energy / cm^(-1):             18308.45527194246    


 Oscillator strength:

    velocity representation:             0.3096224942714757    

    length representation:               0.3611684679575033    

    mixed representation:                0.3343979379341606    


 Rotatory strength:

    velocity representation:            -0.2700033696650771E-05

    velocity rep. / 10^(-40)erg*cm^3:   -0.1744351812628115    

    length representation:              -0.2846968994899408E-05

    length rep. / 10^(-40)erg*cm^3:     -0.1839279092297623    


 Dominant contributions:

      occ. orbital   energy / eV   virt. orbital     energy / eV   |coeff.|^2*100
       81 a              -2.02          82 a               0.45       91.5
 

 Change of electron number:

             0.000000


 Electric transition dipole moment (velocity rep.):

    x       -2.319037        Norm:                  2.359545
    y        0.435336
    z        0.000324        Norm / debye:          5.997410


 Electric transition dipole moment (length rep.):

    x       -2.501825        Norm:                  2.548396
    y        0.484964
    z        0.000360        Norm / debye:          6.477425


 Magnetic transition dipole moment / i:

    x        0.000002        Norm:                  0.001078
    y        0.000004
    z        0.001078        Norm / Bohr mag.:      0.295474


 Electric quadrupole transition moment:

   xx       18.814026
   yy        4.454684        1/3*trace:             7.719191
   zz       -0.111137
   xy      -11.290527
   xz       -0.000564        Anisotropy:           25.981294
   yz        0.004430
 

 Excited state no.    1 chosen for optimization


                       ----------------------
                        CPKS right-hand side 
                       ----------------------


          IRREP   tensor space dimension   number of roots

           a             15471                   1

                          ----------------
                           CPKS equations 
                          ----------------


 logfile dipl_a    will be constructed

 Switching to coarse grid

 preparing numerical integration ....
          Overall gridpoints after grid construction =        122128


                       Nonorthonormal Krylov Space Iteration


 total number of roots to be determined:   1


 maximum core memory set to  5000 MB,
 corresponding to     7544 vectors in CAO basis


 maximum number of simultaneously treated vectors (including degeneracy):        1


 Iteration IRREP Converged      Max. Euclidean
                 roots          residual norm

    1       a        0        1.084470757244490D-01
 
    2       a        0        4.826176380937373D-02
 
    3       a        0        2.224051830103118D-02
 
    4       a        0        9.405191509965001D-03
 
    5       a        0        3.543340473691728D-03
 
    6       a        0        1.233905558586996D-03
 
    7       a        0        4.756756942235421D-04
 
    8       a        0        1.632121730353438D-04
 
    9       a        0        8.197335261935979D-05
 
   10       a        0        1.923086938019722D-05
 
   11       a        1        8.157696443265611D-06
 

 converged!


 Switching to fine grid

 preparing numerical integration ....
          Overall gridpoints after grid construction =        372367

 Iteration IRREP Converged      Max. Euclidean
                 roots          residual norm

   12       a        0        1.626339036556923D-05
 

 NOTE: Residual norms are larger than 1.00D-05 due to mgrid option!

 Eigenpairs written on logfile dipl_a   



 IRREP   Vector     Frequency            Euclidean residual norm

  a         1    0.000000000000000D+00    1.626339036556923D-05
 

                          -------------------
                           relaxed densities 
                          -------------------


    ----------------------------------------
     S+T+V CONTRIBUTIONS TO ENERGY GRADIENT 
    ----------------------------------------

 1e-integral 1st. derivatives will be neglected if expon. factor < 0.100000E-10


    -----------------------------------------------
     TWO ELECTRON CONTRIBUTIONS TO ENERGY GRADIENT 
    -----------------------------------------------

 setting up bound for integral derivative estimation

 increment for numerical differentiation : 0.00050000

 biggest AO integral is expected to be    21.668154127
 biggest cartesian 1st derivative AO integral is expected to be    83.347447328

 biggest 1-particle AO density matrix element is expected to be    3.2070312237

 core memory to be involved in 2e-gradient :
   symmetry shell pair data              :         1
   two particle density+dens. estimates  :      8556
   derivative integrals                  :      8498
   derivative integral bound             :     21780
   totally                               :     30276


 setting up bound for integral derivative estimation

 increment for numerical differentiation : 0.00050000

 biggest AO integral is expected to be    21.668154127
 biggest cartesian 1st derivative AO integral is expected to be    83.347447328

 2e-integral 1st. derivatives will be neglected if expon. factor < 0.100000E-06
 outer boundary for 2e-integral derivative neglection is 0.162048E-08

 Integrated ground state density     :   161.9999976512251    


          ------------------------------------------------
           cartesian gradient of the energy (hartree/bohr)
          ------------------------------------------------

  ATOM      1 o           2 c           3 c           4 c           5 c 
dE/dx -0.3005245D-02  0.3080752D-02  0.1375866D-02 -0.1806823D-02 -0.6965803D-04
dE/dy  0.2107352D-02 -0.1751558D-02 -0.1535287D-02  0.1988779D-02  0.2406610D-02
dE/dz  0.8316669D-04 -0.3314099D-03  0.2604238D-03  0.2175243D-03 -0.4508570D-03

  ATOM      6 c           7 c           8 s           9 c          10 n 
dE/dx  0.1919106D-02 -0.3760207D-02 -0.1011608D-02  0.2808018D-02  0.1117148D-02
dE/dy -0.4153036D-02 -0.2055237D-03  0.1509253D-03 -0.6384120D-03 -0.1697398D-02
dE/dz  0.9677383D-04  0.1344593D-04 -0.1676681D-03  0.2296466D-03  0.2015208D-03

  ATOM     11 c          12 s          13 n          14 c          15 c 
dE/dx -0.3580914D-02 -0.2547351D-03  0.2212381D-02  0.1639693D-02 -0.5812990D-03
dE/dy -0.2156544D-03 -0.2419040D-03 -0.7976394D-03  0.2006852D-02  0.1507913D-02
dE/dz -0.4498929D-03  0.7046281D-04 -0.1945484D-04  0.8329955D-03 -0.1469214D-02

  ATOM     16 h          17 h          18 o          19 br         20 h 
dE/dx  0.6956117D-03 -0.5993216D-04 -0.2085706D-02  0.1630558D-03 -0.3033683D-03
dE/dy -0.4273947D-03 -0.1440759D-03 -0.1498165D-02 -0.6086591D-04  0.2135651D-02
dE/dz  0.1069229D-02  0.1213350D-03 -0.3199757D-03 -0.2848253D-04 -0.1021371D-04

  ATOM     21 h 
dE/dx  0.1494702D-02
dE/dy  0.1050148D-02
dE/dz  0.5050799D-04
 
 resulting FORCE  (fx,fy,fz) = (-.132D-04,-.127D-04,-.137D-06)
 resulting MOMENT (mx,my,mz) = (-.517D-05,0.104D-04,0.586D-04)


 **********************************************************************
  |maximum component of gradient| : 0.41530357E-02  (atom  6 c )       
   gradient norm                  : 0.11829008E-01
 **********************************************************************

 exx =       0.001903 eyy =      -0.001931 ezz =       0.001607
 eyz =      -0.000498 exz =       0.001297 exy =      -0.007204


 <getgrd> : data group $grad  is missing 

   ***  cartesian gradients written onto <gradient>  ***
 
 
 
 ==============================================================================
                           electrostatic moments
 ==============================================================================

 reference point for electrostatic moments:    0.00000   0.00000   0.00000

 
              nuc           gs,e       ->  gs,tot          excit     ->  total
 ------------------------------------------------------------------------------
                          charge      
 ------------------------------------------------------------------------------
         161.000000    -162.000000      -1.000000       0.000000      -1.000000
 
 ------------------------------------------------------------------------------
                       dipole moment  
 ------------------------------------------------------------------------------
   x    -632.811268     637.840202       5.028934      -1.230866       3.798068
   y     776.946736    -783.094032      -6.147296       1.269160      -4.878136
   z       0.688014      -0.696013      -0.007999       0.004428      -0.003571
 
   | dipole moment | =     6.1824 a.u. =    15.7140 debye 
 
 ------------------------------------------------------------------------------
                     quadrupole moment
 ------------------------------------------------------------------------------
  xx    7672.281499   -7846.850541    -174.569042       2.055778    -172.513265
  yy    5796.935873   -5933.487346    -136.551473      13.564791    -122.986682
  zz       5.714232     -98.529817     -92.815585       0.198785     -92.616800
  xy   -4800.926817    4835.631002      34.704185     -12.102479      22.601706
  xz      -6.835650       6.855781       0.020130      -0.033550      -0.013420
  yz      10.439709     -10.508549      -0.068840       0.031695      -0.037145
 
     1/3  trace=    -129.372249
     anisotropy=      80.073994
 
 ==============================================================================
 


    ------------------------------------------------------------------------
         total  cpu-time :  5 minutes and 47 seconds
         total wall-time :  5 minutes and 47 seconds
    ------------------------------------------------------------------------

   ****  egrad : all done  ****


    2018-02-09 22:23:03.765 

$dipole from egrad
  x     3.79806780753688    y    -4.87813635244163    z    -0.00357084525586    a.u.
   | dipole | =   15.7141044926  debye
/work/bdnguye2/luc_project/7_brluc/ex_geo_opt/save/numforce/KraftWerk/p091
