 operating system is UNIX !

 ridft (missouri) : TURBOMOLE V7.2 ( 21454 ) 4 Oct 2017 at 12:48:15
 Copyright (C) 2017 TURBOMOLE GmbH, Karlsruhe


    2018-02-09 22:43:48.249 



                                  r i d f t

                        DFT program with RI approximation 
                                for coulomb part 




                                                 
                                 References:     
                                                 
          TURBOMOLE:                             
              R. Ahlrichs, M. Baer, M. Haeser, H. Horn, and
              C. Koelmel
              Electronic structure calculations on workstation
              computers: the program system TURBOMOLE
              Chem. Phys. Lett. 162: 165 (1989)
          Density Functional:                              
              O. Treutler and R. Ahlrichs                      
              Efficient Molecular Numerical Integration Schemes
              J. Chem. Phys. 102: 346 (1995)                   
          Parallel Version:                                
              Performance of parallel TURBOMOLE for Density    
              Functional Calculations                          
              M. v. Arnim and R. Ahlrichs                      
              J. Comp. Chem. 19: 1746 (1998)                   
          RI-J Method:                                     
              Auxiliary Basis Sets to approximate Coulomb      
              Potentials                                       
              Chem. Phys. Lett. 240: 283 (1995)                
              K. Eichkorn, O. Treutler, H. Oehm, M. Haeser     
              and R. Ahlrichs                                  
              Chem. Phys. Lett. 242: 652 (1995)                
                                                           
              Auxiliary Basis Sets for Main Row Atoms and their
              Use to approximate Coulomb Potentials            
              K. Eichkorn, F. Weigend, O. Treutler and         
              R. Ahlrichs                                      
              Theo. Chem. Acc. 97: 119 (1997)                   
                                                           
              Accurate Coulomb-fitting basis sets for H to Rn 
              F. Weigend                                        
              Phys. Chem. Chem. Phys. 8: 1057 (2006)            
                                                           
          Multipole accelerated RI-J (MARI-J):             
              Fast evaluation of the Coulomb potential for     
              electron densities using multipole accelerated   
              resolution of identity approximation             
              M. Sierka, A. Hogekamp and R. Ahlrichs           
              J. Chem. Phys. 118: 9136 (2003)                  
          RI-JK Method:                                     
              A fully direct RI-HF algorithm: Implementation,
              optimised auxiliary basis sets, demonstration of
              accuracy and efficiency                         
              F. Weigend                                      
              Phys. Chem. Chem. Phys. 4: 4285 (2002)           
          Two-component HF and DFT with spin-orbit coupling:  
              Self-consistent treatment of spin-orbit         
              interactions with efficient Hartree-Fock and    
              density functional methods                      
              M. K. Armbruster, F. Weigend, C. van Wüllen and 
              W. Klopper                                      
              Phys. Chem. Chem. Phys. 10: 1748 (2008)         
          Relativistic all-electron 2c calculations           
              An efficient implementation of two-component    
              relativistic exact-decoupling methods for large 
              molecules                                       
              D. Peng, N. Middendorf, F. Weigend, M. Reiher   
              J. Chem. Phys. 138, 184105 (2013)               
                                         




              +--------------------------------------------------+
              |      general information about current run       |
              +--------------------------------------------------+

 
 PBE0 hybrid functional
 exchange:    3/4 (LDA+PBE) + 1/4 HF
 correlation: LDA (PW) + PBE
 A Hybrid-DFT calculation using the RI-J approximation will be carried out.
 Allocatable memory for RI due to $ricore (MB):                  5000


              +--------------------------------------------------+
              | Atomic coordinate, charge and isotop information |
              +--------------------------------------------------+

                    atomic coordinates            atom    charge  isotop
        -12.81394481    6.80784574    0.00397754    o      8.000     0
        -10.86552191    5.50181015    0.00452194    c      6.000     0
         -8.33505724    6.66336464    0.00466934    c      6.000     0
         -6.09705689    5.18686537    0.00257812    c      6.000     0
         -6.19795831    2.52721283   -0.00609249    c      6.000     0
         -8.60025852    1.36974146   -0.01433816    c      6.000     0
        -10.80057503    2.76786208   -0.00441730    c      6.000     0
         -3.01796232    6.22312348    0.00887863    s     16.000     0
         -2.03733501    3.03359337    0.00226403    c      6.000     0
         -3.85579129    1.36050209   -0.00523551    n      7.000     0
          0.62926429    2.55456828   -0.00133782    c      6.000     0
          1.62528428   -0.65501664   -0.00871233    s     16.000     0
          2.36849103    4.31201150    0.00266979    n      7.000     0
          4.77965960    3.37064880    0.00367278    c      6.000     0
          4.84828009    0.44187154   -0.00902872    c      6.000     0
          5.87908262   -0.23555868    1.67348808    h      1.000     0
          5.88185488   -0.21898994   -1.69617339    h      1.000     0
          6.73238486    4.59169518    0.01039821    o      8.000     0
         -8.16982425   10.16660877    0.01731629    br    35.000     0
         -8.66996999   -0.70156298   -0.02067223    h      1.000     0
        -12.64870703    1.83497169   -0.00918144    h      1.000     0
 
       center of nuclear mass  :   -4.07644578    5.04230068    0.00402164
       center of nuclear charge:   -3.93110169    4.82614305    0.00340490

              +--------------------------------------------------+
              |               basis set information              |
              +--------------------------------------------------+

              we will work with the 1s 3p 5d 7f 9g ... basis set
              ...i.e. with spherical basis functions...

   type   atoms  prim   cont   basis
   ---------------------------------------------------------------------------
    o        2     24     14   def2-SV(P)   [3s2p1d|7s4p1d]
    c       10     24     14   def2-SV(P)   [3s2p1d|7s4p1d]
    s        2     36     18   def2-SV(P)   [4s3p1d|10s7p1d]
    n        2     24     14   def2-SV(P)   [3s2p1d|7s4p1d]
    h        4      4      2   def2-SV(P)   [2s|4s]
    br       1     74     32   def2-SV(P)   [5s4p3d|14s10p6d]
   ---------------------------------------------------------------------------
   total:   21    498    272
   ---------------------------------------------------------------------------

   total number of primitive shells          :   88
   total number of contracted shells         :  120
   total number of cartesian basis functions :  291
   total number of SCF-basis functions       :  272


 integral neglect threshold       :  0.11E-10
 integral storage threshold THIZE :  0.10E-04
 integral storage threshold THIME :         5

 RI-J AUXILIARY BASIS SET information:

              we will work with the 1s 3p 5d 7f 9g ... basis set
              ...i.e. with spherical basis functions...

   type   atoms  prim   cont   basis
   ---------------------------------------------------------------------------
    o        2     70     49   def2-SV(P)   [6s4p3d1f1g|12s5p4d2f1g]
    c       10     70     49   def2-SV(P)   [6s4p3d1f1g|12s5p4d2f1g]
    s        2     77     51   def2-SV(P)   [8s4p3d1f1g|14s5p5d2f1g]
    n        2     70     49   def2-SV(P)   [6s4p3d1f1g|12s5p4d2f1g]
    h        4     16     11   def2-SV(P)   [3s1p1d|5s2p1d]
    br       1     89     58   def2-SV(P)   [8s4p3d2f1g|19s5p5d3f1g]
   ---------------------------------------------------------------------------
   total:   21   1287    890
   ---------------------------------------------------------------------------

   total number of primitive shells          :  140
   total number of contracted shells         :  282
   total number of cartesian basis functions : 1101
   total number of SCF-basis functions       :  890


 symmetry group of the molecule :   c1 

 the group has the following generators :
   c1(z)

    1 symmetry operations found

 there are 1 real representations :   a   

 maximum number of shells which are related by symmetry :  1


    mo occupation :
   irrep   mo's   occupied
    a      272       81
 
 number of basis functions   :                    272
 number of occupied orbitals :                     81
 
  
           ------------------
           density functional
           ------------------
 PBE0 hybrid functional
 exchange:    3/4 (LDA+PBE) + 1/4 HF
 correlation: LDA (PW) + PBE

 iterations will be done with small grid
  
 spherical integration : Lebedev's spherical grid
 spherical gridsize    :                     5
    i.e. gridpoints    :                   590
 value for diffuse not defined
 radial integration    : Chebyshev 2nd kind (scaling 3)
 radial gridsize       :                     8
 integration cells     :                    21
 partition function    : becke
 partition sharpness   :                     3
  

 biggest AO integral is expected to be    21.668154127
  
           ------------------------
               RI-J - INFORMATION
           ------------------------
 Contributions to RI integral batches: 
  neglected integral batches:                  2257
  direct contribution:                            0
  memory contribution:                  5003
 Memory core needed for (P|Q) and Cholesky      7 MByte
 Memory core minimum needed except of (P|Q)     1 MByte
 Total minimum memory core needed (sum)         7 MByte
  
 ****************************************
 Memory allocated for RI-J   249 MByte
 ****************************************
                                            

          ------------------------
          nuclear repulsion energy  :   1710.58371151    
          ------------------------


         -----------------
         -S,T+V- integrals
         -----------------

 1e-integrals will be neglected if expon. factor < 0.114844E-11
 
   Difference densities algorithm switched on.
   The maximal number of linear combinations of
   difference densities is                    20 .

 DIIS switched on: error vector is FDS-SDF
 Max. Iterations for DIIS is     :   4
 DIIS matrix (see manual) 
    Scaling factor of diagonals  :  1.200
    threshold for scaling factor :  0.000

 scf convergence criterion : increment of total energy < .1000000D-06
                  and increment of one-electron energy < .1000000D-03

  MOs are in ASCII format !


 automatic virtual orbital shift switched on 
      shift if e(lumo)-e(homo) < 0.10000000    


 reading orbital data $scfmo  from file mos
 orbital characterization : scfconv=7

 dump of DSCF restart information has been disabled !


 Starting SCF iterations

          Overall gridpoints after grid construction =        122137

 ITERATION  ENERGY          1e-ENERGY        2e-ENERGY     NORM[dD(SAO)]  TOL
   1  -4011.7253634569    -8982.0315240     3259.7224490    0.000D+00 0.115D-10
                            Exc = -172.723512727     Coul =  3488.10394699    
                            exK = -55.6579852098    
                              N = 162.00000195    
                            current damping = 0.700
 
          max. resid. norm for Fia-block=  3.105D-03 for orbital      1a         
          max. resid. fock norm         =  5.524D-03 for orbital      1a         

 ITERATION  ENERGY          1e-ENERGY        2e-ENERGY     NORM[dD(SAO)]  TOL
   2  -4011.7254076736    -8982.0225726     3259.7134534    0.157D-01 0.726D-11
                            Exc = -172.722375676      Eck =  3432.43582911    
                              N = 162.00000184    
                            current damping = 0.650
 
          Norm of current diis error: 0.69120E-02
          max. resid. norm for Fia-block=  1.278D-03 for orbital      1a         
          max. resid. fock norm         =  2.400D-03 for orbital    270a         

 ITERATION  ENERGY          1e-ENERGY        2e-ENERGY     NORM[dD(SAO)]  TOL
   3  -4011.7254158061    -8982.0213526     3259.7122253    0.665D-02 0.575D-11
                            Exc = -172.723153359      Eck =  3432.43537862    
                              N = 162.00000180    
                            current damping = 0.500
 
          Norm of current diis error: 0.45667E-02
          max. resid. norm for Fia-block=  5.036D-04 for orbital      1a         
          max. resid. fock norm         =  8.961D-04 for orbital      1a         

 ITERATION  ENERGY          1e-ENERGY        2e-ENERGY     NORM[dD(SAO)]  TOL
   4  -4011.7254192924    -8982.0239996     3259.7148688    0.206D-02 0.524D-11
                            Exc = -172.722564526      Eck =  3432.43743334    
                              N = 162.00000177    
                            current damping = 0.550
 
          Norm of current diis error: 0.16512E-02
          max. resid. norm for Fia-block=  1.678D-04 for orbital      1a         
          max. resid. fock norm         =  3.296D-04 for orbital    270a         

 ITERATION  ENERGY          1e-ENERGY        2e-ENERGY     NORM[dD(SAO)]  TOL
   5  -4011.7254197832    -8982.0210427     3259.7119114    0.954D-03 0.501D-11
                            Exc = -172.722689219      Eck =  3432.43460063    
                              N = 162.00000177    
                            current damping = 0.600
 
          Norm of current diis error: 0.64527E-03
          max. resid. norm for Fia-block=  5.957D-05 for orbital      1a         
          max. resid. fock norm         =  1.086D-04 for orbital    246a         
          mo-orthogonalization: Cholesky decomposition

 ITERATION  ENERGY          1e-ENERGY        2e-ENERGY     NORM[dD(SAO)]  TOL
   6  -4011.7254201003    -8982.0221313     3259.7129997    0.295D-03 0.485D-11
                            Exc = -172.722704788      Eck =  3432.43570451    
                              N = 162.00000178    
                            current damping = 0.650
 
          Norm of current diis error: 0.20626E-03
          max. resid. norm for Fia-block=  2.234D-05 for orbital      1a         
          max. resid. fock norm         =  4.308D-05 for orbital    245a         

 ENERGY CONVERGED !

          Overall gridpoints after grid construction =        372368

 ITERATION  ENERGY          1e-ENERGY        2e-ENERGY     NORM[dD(SAO)]  TOL
   7  -4011.7254175031    -8982.0219985     3259.7128695    0.126D-03 0.473D-11
                            Exc = -172.722683516      Eck =  3432.43555299    
                              N = 161.99999777    
                            current damping = 0.700
 
          Norm of current diis error: 0.11357E-03
          max. resid. norm for Fia-block=  8.974D-06 for orbital     68a         
          max. resid. fock norm         =  1.723D-05 for orbital    199a         

 End of SCF iterations

   convergence criteria satisfied after     7 iterations


                  ------------------------------------------ 
                 |  total energy      =  -4011.72541750315  |
                  ------------------------------------------ 
                 :  kinetic energy    =   4002.27903186643  :
                 :  potential energy  =  -8014.00444936958  :
                 :  virial theorem    =      1.99764530603  :
                 :  wavefunction norm =      1.00000000000  :
                  .......................................... 


 <geterg> : there is no data group $energy 


 orbitals $scfmo  will be written to file mos

    irrep                 77a         78a         79a         80a         81a   
 eigenvalues H         -0.16864    -0.16311    -0.12891    -0.11915    -0.07384
            eV          -4.5888     -4.4385     -3.5077     -3.2422     -2.0093
 occupation              2.0000      2.0000      2.0000      2.0000      2.0000 

    irrep                 82a         83a         84a         85a         86a   
 eigenvalues H          0.01710     0.10848     0.11836     0.12814     0.13566
            eV           0.4652      2.9519      3.2206      3.4869      3.6916
 
 
 
 
 ==============================================================================
                           electrostatic moments
 ==============================================================================

 reference point for electrostatic moments:    0.00000   0.00000   0.00000

 
              nuc           elec       ->  total
 ------------------------------------------------------------------------------
                          charge      
 ------------------------------------------------------------------------------
         161.000000    -162.000000      -1.000000
 
 ------------------------------------------------------------------------------
                       dipole moment  
 ------------------------------------------------------------------------------
   x    -632.907372     637.969426       5.062054
   y     777.009030    -783.165113      -6.156082
   z       0.548188      -0.555359      -0.007171
 
   | dipole moment | =     7.9701 a.u. =    20.2579 debye 
 
 ------------------------------------------------------------------------------
                     quadrupole moment
 ------------------------------------------------------------------------------
  xx    7675.755405   -7850.496632    -174.741227
  yy    5799.313762   -5935.938173    -136.624411
  zz       5.694760     -98.513155     -92.818394
  xy   -4803.834557    4838.706947      34.872390
  xz      -4.671593       4.667424      -0.004169
  yz       7.944897      -7.996201      -0.051304
 
     1/3  trace=    -134.728011
     anisotropy=      93.219436
 
 ==============================================================================
 


    ------------------------------------------------------------------------
         total  cpu-time :  58.68 seconds
         total wall-time :  58.69 seconds
    ------------------------------------------------------------------------

   ****  ridft : all done  ****


    2018-02-09 22:44:46.922 


 egrad (missouri) : TURBOMOLE V7.2 ( 21454 ) 4 Oct 2017 at 12:24:43
 Copyright (C) 2017 TURBOMOLE GmbH, Karlsruhe


    2018-02-09 22:44:46.934 




                               e g r a d

                             TURBOMOLE GmbH


             integral direct evaluation of excited state
                     and polarizability gradients
                 and first-order nonadiabatic couplings



          references (see also programs escf, dscf and ridft) 

          review 
          F. Furche and D. Rappoport,  
          "Density functional methods for excited states: 
          equilibrium structure and electronic spectra",
          ch. III of "Computational Photochemistry", ed. by 
          M. Olivucci, vol. 16 of "Theoretical and Computational 
          Chemistry", Elsevier, Amsterdam, 2005.

          nonorthonormal Krylov space methods 
          F. Furche, B. T. Krull, B. D. Nguyen, J. Kwon, 
          J. Chem. Phys. 144 (2016), 174105.

          RI-J method 
          D. Rappoport and F. Furche, 
          J. Chem. Phys. 122 (2005), 064105.

          Lagrangian method, implementation, benchmarks 
          F. Furche and R. Ahlrichs,
          J. Chem. Phys. 117 (2002), 7433;
          J. Chem. Phys. 121 (2004), 12772 (E).

          Polarizability derivatives, Raman intensities 
          D. Rappoport and F. Furche, 
          J. Chem. Phys. 126 (2007), 201104.

          First-order nonadiabatic couplings 
          R. Send and F. Furche, 
          J. Chem. Phys. 132 (2010), 044107.
                                     




              +--------------------------------------------------+
              | Atomic coordinate, charge and isotop information |
              +--------------------------------------------------+

                    atomic coordinates            atom    charge  isotop
        -12.81394481    6.80784574    0.00397754    o      8.000     0
        -10.86552191    5.50181015    0.00452194    c      6.000     0
         -8.33505724    6.66336464    0.00466934    c      6.000     0
         -6.09705689    5.18686537    0.00257812    c      6.000     0
         -6.19795831    2.52721283   -0.00609249    c      6.000     0
         -8.60025852    1.36974146   -0.01433816    c      6.000     0
        -10.80057503    2.76786208   -0.00441730    c      6.000     0
         -3.01796232    6.22312348    0.00887863    s     16.000     0
         -2.03733501    3.03359337    0.00226403    c      6.000     0
         -3.85579129    1.36050209   -0.00523551    n      7.000     0
          0.62926429    2.55456828   -0.00133782    c      6.000     0
          1.62528428   -0.65501664   -0.00871233    s     16.000     0
          2.36849103    4.31201150    0.00266979    n      7.000     0
          4.77965960    3.37064880    0.00367278    c      6.000     0
          4.84828009    0.44187154   -0.00902872    c      6.000     0
          5.87908262   -0.23555868    1.67348808    h      1.000     0
          5.88185488   -0.21898994   -1.69617339    h      1.000     0
          6.73238486    4.59169518    0.01039821    o      8.000     0
         -8.16982425   10.16660877    0.01731629    br    35.000     0
         -8.66996999   -0.70156298   -0.02067223    h      1.000     0
        -12.64870703    1.83497169   -0.00918144    h      1.000     0
 
       center of nuclear mass  :   -4.07644578    5.04230068    0.00402164
       center of nuclear charge:   -3.93110169    4.82614305    0.00340490

              +--------------------------------------------------+
              |               basis set information              |
              +--------------------------------------------------+

              we will work with the 1s 3p 5d 7f 9g ... basis set
              ...i.e. with spherical basis functions...

   type   atoms  prim   cont   basis
   ---------------------------------------------------------------------------
    o        2     24     14   def2-SV(P)   [3s2p1d|7s4p1d]
    c       10     24     14   def2-SV(P)   [3s2p1d|7s4p1d]
    s        2     36     18   def2-SV(P)   [4s3p1d|10s7p1d]
    n        2     24     14   def2-SV(P)   [3s2p1d|7s4p1d]
    h        4      4      2   def2-SV(P)   [2s|4s]
    br       1     74     32   def2-SV(P)   [5s4p3d|14s10p6d]
   ---------------------------------------------------------------------------
   total:   21    498    272
   ---------------------------------------------------------------------------

   total number of primitive shells          :   88
   total number of contracted shells         :  120
   total number of cartesian basis functions :  291
   total number of SCF-basis functions       :  272


 residuum convergence criterium   :  0.10E-04


 integral neglect threshold       :  0.11E-10
 integral storage threshold THIZE :  0.10E-04
 integral storage threshold THIME :         5

 
             FOUND RI-J FLAG !
 
  
 AUXILIARY BASIS SET information:

              we will work with the 1s 3p 5d 7f 9g ... basis set
              ...i.e. with spherical basis functions...

   type   atoms  prim   cont   basis
   ---------------------------------------------------------------------------
    o        2     70     49   def2-SV(P)   [6s4p3d1f1g|12s5p4d2f1g]
    c       10     70     49   def2-SV(P)   [6s4p3d1f1g|12s5p4d2f1g]
    s        2     77     51   def2-SV(P)   [8s4p3d1f1g|14s5p5d2f1g]
    n        2     70     49   def2-SV(P)   [6s4p3d1f1g|12s5p4d2f1g]
    h        4     16     11   def2-SV(P)   [3s1p1d|5s2p1d]
    br       1     89     58   def2-SV(P)   [8s4p3d2f1g|19s5p5d3f1g]
   ---------------------------------------------------------------------------
   total:   21   1287    890
   ---------------------------------------------------------------------------

   total number of primitive shells          :  140
   total number of contracted shells         :  282
   total number of cartesian basis functions : 1101
   total number of SCF-basis functions       :  890

 RPA SINGLET-EXCITATION-CALCULATION 
 
             FOUND DFT-FLAG !
 

 symmetry group of the molecule :   c1 

 the group has the following generators :
   c1(z)

    1 symmetry operations found

 there are 1 real representations :   a   

 maximum number of shells which are related by symmetry :  1

 IRREP of excited state :   a   
 

 determining totally symmetric integral contributions 
    - equivalent to irreducible tensor elements - 
 which can be formed within each triple of representations :

             representation triple      contributions

              a     a     a               1

    mo occupation :
   irrep   mo's   occupied
    a      272       81
 
 number of basis functions   :                    272
 number of occupied orbitals :                     81
 
  
           ------------------
           density functional
           ------------------
 PBE0 hybrid functional
 exchange:    3/4 (LDA+PBE) + 1/4 HF
 correlation: LDA (PW) + PBE

 iterations will be done with small grid
  
 spherical integration : Lebedev's spherical grid
 spherical gridsize    :                     5
    i.e. gridpoints    :                   590
 value for diffuse not defined
 radial integration    : Chebyshev 2nd kind (scaling 3)
 radial gridsize       :                     8
 integration cells     :                    21
 partition function    : becke
 partition sharpness   :                     3
  
  
           ----------------------
               RI - INFORMATION
           ----------------------

 biggest AO integral is expected to be    21.668154127

 Threshold for integral neglect (rithr2):   0.11E-10
 Threshold for integral neglect (rithr1):   0.11E-10

 Contributions to RI integral batches: 
  neglected integral batches:                  2115
  direct contribution:                            0
  memory contribution:                  5145
 Core memory available (ricore)            5000 MiB
 Core memory needed for (P|Q) and Cholesky 7 MiB
 Core memory used for integrals            250 MiB
  
 ****************************************
 Memory allocated for RIDFT 257 MiB
 ****************************************
                                            
  MOs are in ASCII format !


 reading orbital data $scfmo  from file mos
 orbital characterization : scfconv=7
 preparing numerical integration ....
          Overall gridpoints after grid construction =        122137

 Calculating ground state density on molecular grid

 Integral of ground state density: N =   162.0000017823859    



 number of non-frozen orbitals          :   272
 number of non-frozen occupied orbitals :    81



                        -------------------
                         excitation vector 
                        -------------------


 dimension of super-tensorspace: 2

          IRREP   tensor space dimension   number of roots

           a             15471                   1

 maximum number of Davidson iterations set to   25


 machine precision: 2.22D-16


 logfile sing_a    will be constructed


                       Nonorthonormal Krylov Space Iteration


 total number of roots to be determined:   1


 maximum core memory set to  5000 MB,
 corresponding to     3796 vectors in CAO basis


 maximum number of simultaneously treated vectors (including degeneracy):        2


 Iteration IRREP Converged      Max. Euclidean
                 roots          residual norm

    1       a        0        3.045027912394332D-02
 
    2       a        0        6.405918887891023D-02
 
    3       a        0        4.594046229233741D-02
 
    4       a        0        1.987695884109318D-02
 
    5       a        0        7.243649613121072D-03
 
    6       a        0        3.125898538204296D-03
 
    7       a        0        1.485457247739792D-03
 
    8       a        0        6.604197919661429D-04
 
    9       a        0        2.802565861292973D-04
 
   10       a        0        1.083494179265062D-04
 
   11       a        0        6.107957366751894D-05
 
   12       a        0        1.778669925176270D-05
 
   13       a        1        7.882180327407954D-06
 

 converged!


 Switching to fine grid

 preparing numerical integration ....
          Overall gridpoints after grid construction =        372368

 Calculating ground state density on molecular grid

 Integral of ground state density: N =   161.9999977730182    



 Iteration IRREP Converged      Max. Euclidean
                 roots          residual norm

   14       a        0        1.016630359089404D-05
 

 NOTE: Residual norms are larger than 1.00D-05 due to mgrid option!

 Eigenpairs written on logfile sing_a   



 IRREP   Vector     Eigenvalue           Euclidean residual norm

  a         1    8.325322640805848D-02    1.016630359089404D-05
 




                    Selection rules for point group c1  


 Subduction with respect to c1  :

    Polar vector representation: a                           

    Axial vector representation: a                           

    Symmetric second rank tensor representation: a                           




                            Ground state


 Total energy:                           -4011.725417503000    

 Charge:

               elec          nuc         total

          -162.000000   161.000000    -1.000000


 Electric dipole moment:

               elec          nuc         total   

    x      637.969426  -632.907372     5.062054    Norm:              7.970056
    y     -783.165113   777.009030    -6.156082
    z       -0.555359     0.548188    -0.007171    Norm / debye:     20.258015


 Electric quadrupole moment:

               elec          nuc         total   

   xx    -7850.496632  7675.755405  -174.741227
   yy    -5935.938173  5799.313762  -136.624411    1/3*trace:      -134.728011
   zz      -98.513155     5.694760   -92.818394
   xy     4838.706947 -4803.834557    34.872390
   xz        4.667424    -4.671593    -0.004169    Anisotropy:       93.219436
   yz       -7.996201     7.944897    -0.051304



 ==============================================================================

                              I R R E P   a   

 ==============================================================================


 Excitation is electric dipole allowed

 Excitation is magnetic dipole allowed

 Excitation is electric quadrupole allowed




                         1 singlet a excitation


 Total energy:                           -4011.642164276592    

 Excitation energy:                      0.8325322640805848E-01

 Excitation energy / eV:                  2.265436526220385    

 Excitation energy / nm:                  547.2863290207538    

 Excitation energy / cm^(-1):             18271.97112049212    


 Oscillator strength:

    velocity representation:             0.3079091967163441    

    length representation:               0.3593991918523516    

    mixed representation:                0.3326536133346388    


 Rotatory strength:

    velocity representation:            -0.2184857778676419E-05

    velocity rep. / 10^(-40)erg*cm^3:   -0.1411523356651573    

    length representation:              -0.1565418116476863E-05

    length rep. / 10^(-40)erg*cm^3:     -0.1011335500140054    


 Dominant contributions:

      occ. orbital   energy / eV   virt. orbital     energy / eV   |coeff.|^2*100
       81 a              -2.01          82 a               0.47       91.7
 

 Change of electron number:

            -0.000000


 Electric transition dipole moment (velocity rep.):

    x        2.314435        Norm:                  2.355355
    y       -0.437135
    z        0.000720        Norm / debye:          5.986761


 Electric transition dipole moment (length rep.):

    x        2.497633        Norm:                  2.544683
    y       -0.487072
    z        0.000052        Norm / debye:          6.467987


 Magnetic transition dipole moment / i:

    x       -0.000001        Norm:                  0.001077
    y       -0.000001
    z       -0.001077        Norm / Bohr mag.:      0.295042


 Electric quadrupole transition moment:

   xx      -18.764827
   yy       -4.492416        1/3*trace:            -7.715584
   zz        0.110490
   xy       11.314020
   xz       -0.000001        Anisotropy:           25.973144
   yz       -0.003586
 

 Excited state no.    1 chosen for optimization


                       ----------------------
                        CPKS right-hand side 
                       ----------------------


          IRREP   tensor space dimension   number of roots

           a             15471                   1

                          ----------------
                           CPKS equations 
                          ----------------


 logfile dipl_a    will be constructed

 Switching to coarse grid

 preparing numerical integration ....
          Overall gridpoints after grid construction =        122137


                       Nonorthonormal Krylov Space Iteration


 total number of roots to be determined:   1


 maximum core memory set to  5000 MB,
 corresponding to     7544 vectors in CAO basis


 maximum number of simultaneously treated vectors (including degeneracy):        1


 Iteration IRREP Converged      Max. Euclidean
                 roots          residual norm

    1       a        0        1.091603576610797D-01
 
    2       a        0        4.880714210711058D-02
 
    3       a        0        2.246010419877051D-02
 
    4       a        0        9.494261224002570D-03
 
    5       a        0        3.566774865580920D-03
 
    6       a        0        1.244086112511777D-03
 
    7       a        0        4.786776157878417D-04
 
    8       a        0        1.649129746103862D-04
 
    9       a        0        8.259083159924390D-05
 
   10       a        0        1.930491697008500D-05
 
   11       a        1        8.163820221792944D-06
 

 converged!


 Switching to fine grid

 preparing numerical integration ....
          Overall gridpoints after grid construction =        372368

 Iteration IRREP Converged      Max. Euclidean
                 roots          residual norm

   12       a        0        1.630848693709363D-05
 

 NOTE: Residual norms are larger than 1.00D-05 due to mgrid option!

 Eigenpairs written on logfile dipl_a   



 IRREP   Vector     Frequency            Euclidean residual norm

  a         1    0.000000000000000D+00    1.630848693709363D-05
 

                          -------------------
                           relaxed densities 
                          -------------------


    ----------------------------------------
     S+T+V CONTRIBUTIONS TO ENERGY GRADIENT 
    ----------------------------------------

 1e-integral 1st. derivatives will be neglected if expon. factor < 0.100000E-10


    -----------------------------------------------
     TWO ELECTRON CONTRIBUTIONS TO ENERGY GRADIENT 
    -----------------------------------------------

 setting up bound for integral derivative estimation

 increment for numerical differentiation : 0.00050000

 biggest AO integral is expected to be    21.668154127
 biggest cartesian 1st derivative AO integral is expected to be    83.347447328

 biggest 1-particle AO density matrix element is expected to be    3.2069912274

 core memory to be involved in 2e-gradient :
   symmetry shell pair data              :         1
   two particle density+dens. estimates  :      8556
   derivative integrals                  :      8498
   derivative integral bound             :     21780
   totally                               :     30276


 setting up bound for integral derivative estimation

 increment for numerical differentiation : 0.00050000

 biggest AO integral is expected to be    21.668154127
 biggest cartesian 1st derivative AO integral is expected to be    83.347447328

 2e-integral 1st. derivatives will be neglected if expon. factor < 0.100000E-06
 outer boundary for 2e-integral derivative neglection is 0.162052E-08

 Integrated ground state density     :   161.9999977730179    


          ------------------------------------------------
           cartesian gradient of the energy (hartree/bohr)
          ------------------------------------------------

  ATOM      1 o           2 c           3 c           4 c           5 c 
dE/dx -0.3220864D-02  0.4151349D-02 -0.1936065D-02  0.9976521D-03 -0.1332202D-02
dE/dy  0.2913616D-02 -0.2970811D-02  0.1268641D-02 -0.1311596D-02 -0.1319945D-02
dE/dz -0.2267190D-03  0.5063876D-03 -0.3263046D-03  0.7923876D-04  0.5624113D-04

  ATOM      6 c           7 c           8 s           9 c          10 n 
dE/dx -0.2635277D-02  0.3479735D-02  0.3597400D-04  0.2398247D-02  0.2448363D-05
dE/dy  0.3259175D-02 -0.1430718D-02  0.1007158D-02 -0.8646439D-03  0.7367479D-03
dE/dz -0.4784555D-03  0.1827829D-03 -0.5323825D-04  0.2557610D-03  0.2891014D-04

  ATOM     11 c          12 s          13 n          14 c          15 c 
dE/dx  0.3399992D-03  0.1408705D-02 -0.3276920D-02  0.5745350D-03 -0.1092924D-02
dE/dy  0.1831620D-02 -0.5928576D-03  0.2431979D-03 -0.2143692D-02 -0.2813983D-03
dE/dz -0.1037460D-03  0.1856130D-03 -0.1472570D-03  0.1517098D-03 -0.3694721D-03

  ATOM     16 h          17 h          18 o          19 br         20 h 
dE/dx -0.2463365D-03 -0.4592005D-04  0.1231345D-02  0.1150006D-04  0.1057701D-03
dE/dy  0.3089552D-04  0.2134704D-03  0.8378010D-03  0.9628777D-04 -0.1013941D-02
dE/dz -0.2827217D-04  0.1819901D-03 -0.1027143D-04  0.5451261D-04  0.7673284D-04

  ATOM     21 h 
dE/dx -0.9642203D-03
dE/dy -0.5225178D-03
dE/dz -0.1631036D-04
 
 resulting FORCE  (fx,fy,fz) = (-.135D-04,-.135D-04,-.166D-06)
 resulting MOMENT (mx,my,mz) = (-.227D-04,-.474D-06,0.887D-04)


 **********************************************************************
  |maximum component of gradient| : 0.41513495E-02  (atom  2 c )       
   gradient norm                  : 0.11166893E-01
 **********************************************************************

 exx =       0.004500 eyy =       0.010247 ezz =      -0.000349
 eyz =      -0.000316 exz =      -0.000288 exy =      -0.005347


 <getgrd> : data group $grad  is missing 

   ***  cartesian gradients written onto <gradient>  ***
 
 
 
 ==============================================================================
                           electrostatic moments
 ==============================================================================

 reference point for electrostatic moments:    0.00000   0.00000   0.00000

 
              nuc           gs,e       ->  gs,tot          excit     ->  total
 ------------------------------------------------------------------------------
                          charge      
 ------------------------------------------------------------------------------
         161.000000    -162.000000      -1.000000       0.000000      -1.000000
 
 ------------------------------------------------------------------------------
                       dipole moment  
 ------------------------------------------------------------------------------
   x    -632.907372     637.969426       5.062054      -1.254024       3.808030
   y     777.009030    -783.165113      -6.156082       1.271026      -4.885056
   z       0.548188      -0.555359      -0.007171       0.003106      -0.004065
 
   | dipole moment | =     6.1939 a.u. =    15.7434 debye 
 
 ------------------------------------------------------------------------------
                     quadrupole moment
 ------------------------------------------------------------------------------
  xx    7675.755405   -7850.496632    -174.741227       2.161171    -172.580056
  yy    5799.313762   -5935.938173    -136.624411      13.584231    -123.040180
  zz       5.694760     -98.513155     -92.818394       0.199060     -92.619334
  xy   -4803.834557    4838.706947      34.872390     -12.191713      22.680677
  xz      -4.671593       4.667424      -0.004169      -0.020790      -0.024958
  yz       7.944897      -7.996201      -0.051304       0.021753      -0.029551
 
     1/3  trace=    -129.413190
     anisotropy=      80.186756
 
 ==============================================================================
 


    ------------------------------------------------------------------------
         total  cpu-time :  5 minutes and 57 seconds
         total wall-time :  5 minutes and 57 seconds
    ------------------------------------------------------------------------

   ****  egrad : all done  ****


    2018-02-09 22:50:43.569 

$dipole from egrad
  x     3.80802997381386    y    -4.88505614201529    z    -0.00406474576141    a.u.
   | dipole | =   15.7435419802  debye
/work/bdnguye2/luc_project/7_brluc/ex_geo_opt/save/numforce/KraftWerk/p095
