
 ruecker (missouri) : TURBOMOLE V7.2 ( 21454 ) 2 Oct 2017 at 16:43:05
 Copyright (C) 2017 TURBOMOLE GmbH, Karlsruhe


    2018-02-09 11:43:41.152 


 symmetry group of the molecule :   c1 

 the group has the following generators :
   c1(z)

    1 symmetry operations found
 number of atoms                    21
 polyhedral displacements:                    98  calculations
 central differences :                   126  calculations
 TYPE polyedr IS USED.
 number of displacements                    98
  m is now                     98
  coefficient matrix of displacements
 0.000 0.004 0.001 0.003 0.001 0.003 0.002 0.003 0.002 0.003
 0.002 0.003 0.003 0.002 0.003 0.002 0.003 0.002 0.003 0.001
 0.003 0.001 0.004 0.000 0.004-0.000 0.004-0.001 0.003-0.001
 0.003-0.001 0.003-0.002 0.003-0.002 0.002-0.003 0.002-0.003
 0.002-0.003 0.001-0.003 0.001-0.003 0.000-0.004 0.000 0.004
 0.001 0.003 0.001 0.003 0.002 0.003 0.002 0.003 0.002 0.003
 0.003 0.002 0.003
 0.000 0.004 0.001 0.003 0.002 0.003 0.003 0.002 0.003 0.001
 0.004 0.001 0.004-0.000 0.003-0.001 0.003-0.002 0.002-0.003
 0.002-0.003 0.001-0.003-0.000-0.004-0.001-0.003-0.002-0.003
-0.003-0.002-0.003-0.002-0.003-0.001-0.004 0.000-0.003 0.001
-0.003 0.002-0.002 0.003-0.002 0.003-0.001 0.003 0.001 0.003
 0.002 0.003 0.002 0.003 0.003 0.002 0.003 0.001 0.004 0.000
 0.003-0.001-0.003
 0.001 0.003 0.002 0.003 0.003 0.002 0.003 0.001 0.004-0.001
 0.003-0.002 0.002-0.003 0.001-0.003-0.000-0.004-0.002-0.003
-0.003-0.002-0.003-0.001-0.004 0.000-0.003 0.002-0.002 0.003
-0.001 0.003 0.000 0.004 0.002 0.003 0.003 0.002 0.003 0.001
 0.004-0.000 0.003-0.001 0.002-0.003 0.001-0.003 0.001 0.003
 0.002 0.003 0.003 0.001 0.004 0.000 0.003-0.001 0.003-0.002
 0.002-0.003 0.003
 0.001 0.003 0.002 0.003 0.003 0.001 0.003-0.001 0.003-0.002
 0.001-0.003-0.001-0.003-0.002-0.003-0.003-0.001-0.004 0.001
-0.003 0.002-0.001 0.003 0.000 0.004 0.002 0.003 0.003 0.001
 0.004-0.000 0.003-0.002 0.002-0.003-0.000-0.004-0.002-0.003
-0.003-0.002-0.004 0.000-0.003 0.002-0.002 0.003 0.002 0.003
 0.003 0.002 0.004 0.000 0.003-0.002 0.002-0.003 0.000-0.004
-0.002-0.003-0.003
 0.001 0.003 0.003 0.002 0.004-0.000 0.003-0.002 0.001-0.003
-0.001-0.003-0.003-0.002-0.004 0.000-0.003 0.002-0.001 0.003
 0.002 0.003 0.003 0.002 0.004-0.001 0.002-0.003 0.000-0.004
-0.002-0.003-0.003-0.001-0.003 0.001-0.002 0.003-0.000 0.004
 0.002 0.003 0.003 0.001 0.003-0.001 0.002-0.003 0.002 0.003
 0.003 0.001 0.003-0.001 0.002-0.003-0.000-0.004-0.002-0.003
-0.003-0.001 0.003
 0.001 0.003 0.003 0.001 0.003-0.001 0.002-0.003-0.001-0.003
-0.003-0.002-0.003 0.001-0.002 0.003 0.001 0.003 0.003 0.002
 0.003-0.001 0.002-0.003-0.001-0.003-0.003-0.002-0.004 0.001
-0.002 0.003 0.000 0.004 0.003 0.002 0.004-0.000 0.002-0.003
-0.000-0.004-0.003-0.002-0.004 0.000-0.002 0.003 0.002 0.003
 0.004 0.000 0.003-0.002 0.000-0.004-0.002-0.003-0.004-0.000
-0.003 0.002-0.003
 0.002 0.003 0.003 0.001 0.003-0.002 0.000-0.004-0.003-0.002
-0.003 0.001-0.002 0.003 0.002 0.003 0.003 0.001 0.003-0.002
 0.000-0.004-0.003-0.002-0.003 0.001-0.002 0.003 0.002 0.003
 0.003 0.001 0.003-0.002 0.000-0.004-0.003-0.002-0.003 0.001
-0.002 0.003 0.002 0.003 0.003 0.001 0.003-0.002 0.003 0.002
 0.003-0.001 0.002-0.003-0.002-0.003-0.003-0.001-0.003 0.002
-0.000 0.004 0.003
 0.002 0.003 0.004 0.000 0.002-0.003-0.002-0.003-0.004-0.000
-0.002 0.003 0.001 0.003 0.004 0.001 0.002-0.003-0.001-0.003
-0.003-0.001-0.002 0.003 0.001 0.003 0.003 0.001 0.003-0.002
-0.001-0.003-0.003-0.001-0.003 0.002 0.000 0.004 0.003 0.001
 0.003-0.002-0.000-0.004-0.003-0.002-0.003 0.002 0.003 0.002
 0.003-0.002 0.000-0.004-0.003-0.002-0.003 0.001-0.000 0.004
 0.003 0.002-0.003
 0.002 0.003 0.004-0.001 0.001-0.003-0.003-0.002-0.003 0.002
 0.000 0.004 0.003 0.001 0.002-0.003-0.001-0.003-0.004-0.000
-0.002 0.003 0.002 0.003 0.003-0.001 0.000-0.004-0.003-0.002
-0.003 0.002 0.001 0.003 0.003 0.001 0.002-0.003-0.002-0.003
-0.004 0.000-0.001 0.003 0.003 0.002 0.003-0.001 0.003 0.001
 0.003-0.002-0.001-0.003-0.004-0.000-0.002 0.003 0.002 0.003
 0.003-0.001 0.003
 0.002 0.003 0.003-0.001-0.000-0.004-0.003-0.001-0.002 0.003
 0.002 0.003 0.003-0.002-0.001-0.003-0.004-0.000-0.001 0.003
 0.003 0.002 0.003-0.002-0.001-0.003-0.004 0.000-0.001 0.003
 0.003 0.002 0.003-0.002-0.002-0.003-0.004 0.001-0.000 0.004
 0.003 0.001 0.002-0.003-0.002-0.003-0.003 0.001 0.003 0.001
 0.002-0.003-0.002-0.003-0.003 0.001 0.000 0.004 0.004 0.001
 0.002-0.003-0.003
 0.002 0.003 0.003-0.002-0.001-0.003-0.003 0.001 0.000 0.004
 0.004 0.000 0.001-0.003-0.003-0.001-0.002 0.003 0.003 0.002
 0.003-0.002-0.002-0.003-0.003 0.001 0.001 0.003 0.004-0.000
 0.000-0.004-0.003-0.001-0.002 0.003 0.003 0.002 0.002-0.003
-0.002-0.003-0.003 0.002 0.001 0.003 0.004-0.001 0.004 0.001
 0.001-0.003-0.003-0.002-0.002 0.003 0.002 0.003 0.003-0.002
-0.002-0.003 0.003
 0.002 0.003 0.003-0.002-0.002-0.003-0.003 0.002 0.002 0.003
 0.003-0.002-0.002-0.003-0.003 0.002 0.002 0.003 0.003-0.002
-0.002-0.003-0.003 0.001 0.001 0.003 0.003-0.001-0.001-0.003
-0.003 0.001 0.001 0.003 0.003-0.001-0.001-0.003-0.004 0.001
 0.000 0.004 0.004-0.000-0.000-0.004-0.004 0.000 0.004 0.000
 0.000-0.004-0.004-0.000-0.000 0.004 0.004 0.001 0.001-0.003
-0.003-0.001-0.003
 0.003 0.002 0.002-0.003-0.003-0.002-0.002 0.003 0.003 0.001
 0.001-0.003-0.004-0.001-0.000 0.004 0.004-0.000-0.000-0.004
-0.003 0.001 0.001 0.003 0.003-0.001-0.002-0.003-0.003 0.002
 0.002 0.003 0.002-0.003-0.003-0.002-0.002 0.003 0.003 0.002
 0.001-0.003-0.003-0.001-0.001 0.003 0.004 0.000 0.004-0.000
-0.001-0.003-0.003 0.001 0.001 0.003 0.003-0.002-0.002-0.003
-0.003 0.002 0.003
 0.003 0.002 0.002-0.003-0.003-0.001-0.000 0.004 0.003-0.001
-0.002-0.003-0.003 0.002 0.003 0.002 0.002-0.003-0.003-0.001
-0.000 0.004 0.003-0.001-0.002-0.003-0.003 0.002 0.003 0.002
 0.002-0.003-0.003-0.001-0.000 0.004 0.003-0.001-0.002-0.003
-0.003 0.002 0.003 0.002 0.002-0.003-0.003-0.001 0.003-0.001
-0.002-0.003-0.003 0.002 0.003 0.002 0.002-0.003-0.003-0.001
-0.000 0.004-0.003
 0.003 0.002 0.001-0.003-0.004 0.000 0.002 0.003 0.002-0.003
-0.003-0.001-0.000 0.004 0.003-0.001-0.002-0.003-0.002 0.003
 0.003 0.001-0.000-0.004-0.003 0.002 0.003 0.002 0.001-0.003
-0.004-0.000 0.001 0.003 0.003-0.002-0.003-0.002-0.001 0.003
 0.004-0.001-0.002-0.003-0.002 0.003 0.003 0.001 0.003-0.001
-0.002-0.003-0.002 0.003 0.004 0.001-0.001-0.003-0.003 0.002
 0.003 0.002 0.003
 0.003 0.002 0.000-0.004-0.003 0.001 0.003 0.002 0.001-0.003
-0.003 0.001 0.002 0.003 0.001-0.003-0.004 0.001 0.002 0.003
 0.002-0.003-0.004 0.000 0.002 0.003 0.002-0.003-0.004-0.000
 0.001 0.003 0.002-0.003-0.003-0.001 0.001 0.003 0.003-0.002
-0.003-0.001 0.000 0.004 0.003-0.002-0.003-0.002 0.003-0.002
-0.003-0.002-0.000 0.004 0.003-0.001-0.003-0.002-0.001 0.003
 0.003-0.001-0.003
 0.003 0.002-0.000-0.004-0.003 0.002 0.003 0.001-0.001-0.003
-0.002 0.003 0.004-0.000-0.002-0.003-0.001 0.003 0.003-0.001
-0.003-0.002-0.000 0.004 0.003-0.002-0.003-0.001 0.001 0.003
 0.002-0.003-0.004-0.001 0.002 0.003 0.002-0.003-0.004 0.000
 0.002 0.003 0.001-0.003-0.003 0.001 0.003 0.002 0.003-0.002
-0.003-0.001 0.001 0.003 0.002-0.003-0.004-0.000 0.002 0.003
 0.002-0.003 0.003
 0.003 0.001-0.001-0.003-0.002 0.003 0.003-0.001-0.003-0.002
 0.000 0.004 0.002-0.003-0.004 0.000 0.002 0.003 0.000-0.004
-0.003 0.002 0.004 0.001-0.002-0.003-0.001 0.003 0.003-0.002
-0.003-0.001 0.001 0.003 0.002-0.003-0.003 0.001 0.003 0.002
-0.001-0.003-0.002 0.003 0.004-0.000-0.003-0.002 0.003-0.002
-0.004-0.000 0.002 0.003 0.001-0.003-0.003 0.002 0.003 0.001
-0.002-0.003-0.003
 0.003 0.001-0.002-0.003-0.001 0.003 0.003-0.002-0.004-0.000
 0.003 0.002-0.000-0.004-0.002 0.003 0.003-0.001-0.003-0.001
 0.002 0.003 0.001-0.003-0.003 0.002 0.004 0.000-0.002-0.003
 0.000 0.004 0.002-0.003-0.003 0.001 0.003 0.002-0.001-0.003
-0.001 0.003 0.003-0.002-0.004-0.001 0.002 0.003 0.002-0.003
-0.004 0.001 0.003 0.002-0.001-0.003-0.001 0.003 0.003-0.002
-0.003-0.001 0.003
 0.003 0.001-0.002-0.003 0.000 0.004 0.002-0.003-0.003 0.002
 0.004 0.000-0.003-0.002 0.001 0.003 0.001-0.003-0.002 0.003
 0.003-0.001-0.003-0.001 0.002 0.003-0.000-0.004-0.002 0.003
 0.003-0.002-0.004-0.000 0.003 0.002-0.001-0.003-0.001 0.003
 0.003-0.002-0.004 0.001 0.003 0.001-0.002-0.003 0.002-0.003
-0.003 0.001 0.004 0.001-0.003-0.002 0.001 0.003 0.001-0.003
-0.003 0.002-0.003
 0.003 0.001-0.003-0.002 0.002 0.003 0.000-0.004-0.002 0.003
 0.003-0.002-0.003 0.001 0.003 0.001-0.003-0.002 0.002 0.003
 0.000-0.004-0.002 0.003 0.003-0.002-0.003 0.001 0.003 0.001
-0.003-0.002 0.002 0.003 0.000-0.004-0.002 0.003 0.003-0.002
-0.003 0.001 0.003 0.001-0.003-0.002 0.002 0.003 0.002-0.003
-0.003 0.002 0.003-0.001-0.003-0.001 0.003 0.002-0.002-0.003
-0.000 0.004 0.003
 0.004 0.001-0.003-0.002 0.002 0.003-0.002-0.003 0.000 0.004
 0.001-0.003-0.002 0.003 0.003-0.002-0.003 0.001 0.004-0.000
-0.003-0.001 0.003 0.002-0.002-0.003 0.001 0.003-0.000-0.004
-0.001 0.003 0.002-0.003-0.003 0.002 0.003-0.001-0.004 0.000
 0.003 0.001-0.003-0.002 0.002 0.003-0.001-0.003 0.001-0.003
-0.002 0.003 0.003-0.002-0.003 0.001 0.004 0.000-0.003-0.001
 0.003 0.002-0.003
 0.004 0.000-0.003-0.001 0.003 0.002-0.003-0.002 0.002 0.003
-0.002-0.003 0.001 0.003-0.000-0.004-0.000 0.004 0.001-0.003
-0.002 0.003 0.002-0.003-0.003 0.002 0.003-0.002-0.003 0.001
 0.004-0.001-0.004-0.000 0.003 0.001-0.003-0.001 0.003 0.002
-0.002-0.003 0.002 0.003-0.001-0.003 0.001 0.003 0.001-0.003
-0.001 0.003 0.002-0.003-0.002 0.003 0.003-0.002-0.003 0.001
 0.003-0.001 0.003
 0.004 0.000-0.004-0.000 0.004 0.001-0.003-0.001 0.003 0.001
-0.003-0.001 0.003 0.001-0.003-0.002 0.003 0.002-0.003-0.002
 0.003 0.002-0.003-0.002 0.002 0.003-0.002-0.003 0.002 0.003
-0.002-0.003 0.002 0.003-0.002-0.003 0.001 0.003-0.001-0.003
 0.001 0.003-0.001-0.003 0.000 0.004-0.000-0.004 0.000-0.004
-0.000 0.004 0.001-0.003-0.001 0.003 0.001-0.003-0.001 0.003
 0.002-0.003-0.003
 0.004-0.000-0.004 0.000 0.004-0.001-0.003 0.001 0.003-0.001
-0.003 0.001 0.003-0.001-0.003 0.002 0.003-0.002-0.003 0.002
 0.003-0.002-0.003 0.002 0.002-0.003-0.002 0.003 0.002-0.003
-0.002 0.003 0.002-0.003-0.002 0.003 0.001-0.003-0.001 0.003
 0.001-0.003-0.001 0.003 0.000-0.004-0.000 0.004-0.000-0.004
 0.000 0.004-0.001-0.003 0.001 0.003-0.001-0.003 0.001 0.003
-0.002-0.003 0.003
 0.004-0.000-0.003 0.001 0.003-0.002-0.003 0.002 0.002-0.003
-0.002 0.003 0.001-0.003-0.000 0.004-0.000-0.004 0.001 0.003
-0.002-0.003 0.002 0.003-0.003-0.002 0.003 0.002-0.003-0.001
 0.004 0.001-0.004 0.000 0.003-0.001-0.003 0.001 0.003-0.002
-0.002 0.003 0.002-0.003-0.001 0.003 0.001-0.003-0.001-0.003
 0.001 0.003-0.002-0.003 0.002 0.003-0.003-0.002 0.003 0.001
-0.003-0.001-0.003
 0.004-0.001-0.003 0.002 0.002-0.003-0.002 0.003 0.000-0.004
 0.001 0.003-0.002-0.003 0.003 0.002-0.003-0.001 0.004 0.000
-0.003 0.001 0.003-0.002-0.002 0.003 0.001-0.003-0.000 0.004
-0.001-0.003 0.002 0.003-0.003-0.002 0.003 0.001-0.004-0.000
 0.003-0.001-0.003 0.002 0.002-0.003-0.001 0.003-0.001-0.003
 0.002 0.003-0.003-0.002 0.003 0.001-0.004 0.000 0.003-0.001
-0.003 0.002 0.003
 0.003-0.001-0.003 0.002 0.002-0.003-0.000 0.004-0.002-0.003
 0.003 0.002-0.003-0.001 0.003-0.001-0.003 0.002 0.002-0.003
-0.000 0.004-0.002-0.003 0.003 0.002-0.003-0.001 0.003-0.001
-0.003 0.002 0.002-0.003-0.000 0.004-0.002-0.003 0.003 0.002
-0.003-0.001 0.003-0.001-0.003 0.002 0.002-0.003-0.002-0.003
 0.003 0.002-0.003-0.001 0.003-0.001-0.003 0.002 0.002-0.003
-0.000 0.004-0.003
 0.003-0.001-0.002 0.003 0.000-0.004 0.002 0.003-0.003-0.002
 0.004-0.000-0.003 0.002 0.001-0.003 0.001 0.003-0.002-0.003
 0.003 0.001-0.003 0.001 0.002-0.003-0.000 0.004-0.002-0.003
 0.003 0.002-0.004 0.000 0.003-0.002-0.001 0.003-0.001-0.003
 0.003 0.002-0.004-0.001 0.003-0.001-0.002 0.003-0.002-0.003
 0.003 0.001-0.004 0.001 0.003-0.002-0.001 0.003-0.001-0.003
 0.003 0.002 0.003
 0.003-0.001-0.002 0.003-0.001-0.003 0.003 0.002-0.004 0.000
 0.003-0.002-0.000 0.004-0.002-0.003 0.003 0.001-0.003 0.001
 0.002-0.003 0.001 0.003-0.003-0.002 0.004-0.000-0.002 0.003
 0.000-0.004 0.002 0.003-0.003-0.001 0.003-0.002-0.001 0.003
-0.001-0.003 0.003 0.002-0.004 0.001 0.002-0.003-0.002-0.003
 0.004 0.001-0.003 0.002 0.001-0.003 0.001 0.003-0.003-0.002
 0.003-0.001-0.003
 0.003-0.001-0.001 0.003-0.002-0.003 0.003 0.001-0.003 0.002
 0.000-0.004 0.002 0.003-0.004-0.000 0.002-0.003 0.000 0.004
-0.003-0.002 0.004-0.001-0.002 0.003-0.001-0.003 0.003 0.002
-0.003 0.001 0.001-0.003 0.002 0.003-0.003-0.001 0.003-0.002
-0.001 0.003-0.002-0.003 0.004 0.000-0.003 0.002-0.003-0.002
 0.004-0.000-0.002 0.003-0.001-0.003 0.003 0.002-0.003 0.001
 0.002-0.003 0.003
 0.003-0.002-0.000 0.004-0.003-0.002 0.003-0.001-0.001 0.003
-0.002-0.003 0.004 0.000-0.002 0.003-0.001-0.003 0.003 0.001
-0.003 0.002-0.000-0.004 0.003 0.002-0.003 0.001 0.001-0.003
 0.002 0.003-0.004 0.001 0.002-0.003 0.002 0.003-0.004-0.000
 0.002-0.003 0.001 0.003-0.003-0.001 0.003-0.002-0.003-0.002
 0.003-0.001-0.001 0.003-0.002-0.003 0.004-0.000-0.002 0.003
-0.002-0.003-0.003
 0.003-0.002 0.000 0.004-0.003-0.001 0.003-0.002 0.001 0.003
-0.003-0.001 0.002-0.003 0.001 0.003-0.004-0.001 0.002-0.003
 0.002 0.003-0.004-0.000 0.002-0.003 0.002 0.003-0.004 0.000
 0.001-0.003 0.002 0.003-0.003 0.001 0.001-0.003 0.003 0.002
-0.003 0.001 0.000-0.004 0.003 0.002-0.003 0.002-0.003-0.002
 0.003-0.002 0.000 0.004-0.003-0.001 0.003-0.002 0.001 0.003
-0.003-0.001 0.003
 0.003-0.002 0.001 0.003-0.004-0.000 0.002-0.003 0.002 0.003
-0.003 0.001-0.000-0.004 0.003 0.001-0.002 0.003-0.002-0.003
 0.003-0.001-0.000 0.004-0.003-0.002 0.003-0.002 0.001 0.003
-0.004 0.000 0.001-0.003 0.003 0.002-0.003 0.002-0.001-0.003
 0.004 0.001-0.002 0.003-0.002-0.003 0.003-0.001-0.003-0.001
 0.002-0.003 0.002 0.003-0.004 0.001 0.001-0.003 0.003 0.002
-0.003 0.002-0.003
 0.003-0.002 0.002 0.003-0.003 0.001 0.000-0.004 0.003 0.001
-0.002 0.003-0.003-0.002 0.003-0.002 0.002 0.003-0.003 0.001
 0.000-0.004 0.003 0.001-0.002 0.003-0.003-0.002 0.003-0.002
 0.002 0.003-0.003 0.001 0.000-0.004 0.003 0.001-0.002 0.003
-0.003-0.002 0.003-0.002 0.002 0.003-0.003 0.001-0.003-0.001
 0.002-0.003 0.003 0.002-0.003 0.002-0.002-0.003 0.003-0.001
-0.000 0.004 0.003
 0.003-0.002 0.002 0.003-0.003 0.002-0.002-0.003 0.003-0.001
 0.001 0.003-0.004 0.001-0.000-0.004 0.004 0.000-0.000 0.004
-0.003-0.001 0.001-0.003 0.003 0.001-0.002 0.003-0.003-0.002
 0.002-0.003 0.002 0.003-0.003 0.002-0.002-0.003 0.003-0.002
 0.001 0.003-0.003 0.001-0.001-0.003 0.004-0.000-0.004-0.000
 0.001-0.003 0.003 0.001-0.001 0.003-0.003-0.002 0.002-0.003
 0.003 0.002-0.003
 0.002-0.003 0.003 0.002-0.002 0.003-0.003-0.002 0.002-0.003
 0.003 0.002-0.002 0.003-0.003-0.002 0.002-0.003 0.003 0.002
-0.002 0.003-0.003-0.001 0.001-0.003 0.003 0.001-0.001 0.003
-0.003-0.001 0.001-0.003 0.003 0.001-0.001 0.003-0.004-0.001
 0.000-0.004 0.004 0.000-0.000 0.004-0.004-0.000-0.004 0.000
-0.000-0.004 0.004-0.000 0.000 0.004-0.004 0.001-0.001-0.003
 0.003-0.001 0.003
 0.002-0.003 0.003 0.002-0.001 0.003-0.003-0.001 0.000-0.004
 0.004-0.000 0.001 0.003-0.003 0.001-0.002-0.003 0.003-0.002
 0.003 0.002-0.002 0.003-0.003-0.001 0.001-0.003 0.004 0.000
 0.000 0.004-0.003 0.001-0.002-0.003 0.003-0.002 0.002 0.003
-0.002 0.003-0.003-0.002 0.001-0.003 0.004 0.001-0.004 0.001
-0.001-0.003 0.003-0.002 0.002 0.003-0.002 0.003-0.003-0.002
 0.002-0.003-0.003
 0.002-0.003 0.003 0.001-0.000 0.004-0.003 0.001-0.002-0.003
 0.002-0.003 0.003 0.002-0.001 0.003-0.004 0.000-0.001-0.003
 0.003-0.002 0.003 0.002-0.001 0.003-0.004-0.000-0.001-0.003
 0.003-0.002 0.003 0.002-0.002 0.003-0.004-0.001-0.000-0.004
 0.003-0.001 0.002 0.003-0.002 0.003-0.003-0.001-0.003 0.001
-0.002-0.003 0.002-0.003 0.003 0.001-0.000 0.004-0.004 0.001
-0.002-0.003 0.003
 0.002-0.003 0.004 0.001 0.001 0.003-0.003 0.002-0.003-0.002
 0.000-0.004 0.003-0.001 0.002 0.003-0.001 0.003-0.004 0.000
-0.002-0.003 0.002-0.003 0.003 0.001 0.000 0.004-0.003 0.002
-0.003-0.002 0.001-0.003 0.003-0.001 0.002 0.003-0.002 0.003
-0.004-0.000-0.001-0.003 0.003-0.002 0.003 0.001-0.003 0.001
-0.003-0.002 0.001-0.003 0.004-0.000 0.002 0.003-0.002 0.003
-0.003-0.001-0.003
 0.002-0.003 0.004-0.000 0.002 0.003-0.002 0.003-0.004 0.000
-0.002-0.003 0.001-0.003 0.004-0.001 0.002 0.003-0.001 0.003
-0.003 0.001-0.002-0.003 0.001-0.003 0.003-0.001 0.003 0.002
-0.001 0.003-0.003 0.001-0.003-0.002 0.000-0.004 0.003-0.001
 0.003 0.002-0.000 0.004-0.003 0.002-0.003-0.002-0.003 0.002
-0.003-0.002-0.000-0.004 0.003-0.002 0.003 0.001 0.000 0.004
-0.003 0.002 0.003
 0.002-0.003 0.003-0.001 0.003 0.002-0.000 0.004-0.003 0.002
-0.003-0.001-0.002-0.003 0.002-0.003 0.003-0.001 0.003 0.002
-0.000 0.004-0.003 0.002-0.003-0.001-0.002-0.003 0.002-0.003
 0.003-0.001 0.003 0.002-0.000 0.004-0.003 0.002-0.003-0.001
-0.002-0.003 0.002-0.003 0.003-0.001 0.003 0.002-0.003 0.002
-0.003-0.001-0.002-0.003 0.002-0.003 0.003-0.001 0.003 0.002
-0.000 0.004-0.003
 0.001-0.003 0.003-0.001 0.003 0.001 0.002 0.003-0.001 0.003
-0.003 0.002-0.003-0.001-0.002-0.003 0.001-0.003 0.003-0.002
 0.003 0.001 0.002 0.003-0.001 0.003-0.003 0.002-0.004-0.001
-0.002-0.003 0.000-0.004 0.003-0.002 0.004 0.000 0.002 0.003
-0.000 0.004-0.003 0.002-0.004-0.000-0.002-0.003-0.002 0.003
-0.004 0.000-0.003-0.002-0.000-0.004 0.002-0.003 0.004-0.000
 0.003 0.002 0.003
 0.001-0.003 0.003-0.002 0.004 0.000 0.003 0.002 0.001 0.003
-0.001 0.003-0.003 0.002-0.004-0.000-0.003-0.002-0.001-0.003
 0.002-0.003 0.003-0.002 0.004 0.001 0.002 0.003 0.000 0.004
-0.002 0.003-0.003 0.001-0.003-0.001-0.002-0.003-0.000-0.004
 0.002-0.003 0.003-0.001 0.003 0.001 0.002 0.003-0.002 0.003
-0.003 0.001-0.003-0.001-0.002-0.003 0.000-0.004 0.002-0.003
 0.003-0.001-0.003
 0.001-0.003 0.002-0.003 0.003-0.001 0.003 0.001 0.003 0.002
 0.001 0.003-0.001 0.003-0.002 0.003-0.003 0.001-0.004-0.001
-0.003-0.002-0.001-0.003 0.000-0.004 0.002-0.003 0.003-0.001
 0.004 0.000 0.003 0.002 0.002 0.003-0.000 0.004-0.002 0.003
-0.003 0.002-0.004-0.000-0.003-0.002-0.002-0.003-0.002 0.003
-0.003 0.002-0.004 0.000-0.003-0.002-0.002-0.003-0.000-0.004
 0.002-0.003 0.003
 0.001-0.003 0.002-0.003 0.003-0.002 0.003-0.001 0.004 0.001
 0.003 0.002 0.002 0.003 0.001 0.003-0.000 0.004-0.002 0.003
-0.003 0.002-0.003 0.001-0.004-0.000-0.003-0.002-0.002-0.003
-0.001-0.003 0.000-0.004 0.002-0.003 0.003-0.002 0.003-0.001
 0.004 0.000 0.003 0.001 0.002 0.003 0.001 0.003-0.001 0.003
-0.002 0.003-0.003 0.001-0.004 0.000-0.003-0.001-0.003-0.002
-0.002-0.003-0.003
 0.000-0.004 0.001-0.003 0.002-0.003 0.003-0.002 0.003-0.001
 0.004-0.001 0.004 0.000 0.003 0.001 0.003 0.002 0.002 0.003
 0.002 0.003 0.001 0.003-0.000 0.004-0.001 0.003-0.002 0.003
-0.003 0.002-0.003 0.002-0.003 0.001-0.004-0.000-0.003-0.001
-0.003-0.002-0.002-0.003-0.002-0.003-0.001-0.003-0.001 0.003
-0.002 0.003-0.002 0.003-0.003 0.002-0.003 0.001-0.004 0.000
-0.003-0.001 0.003
 0.000-0.004 0.001-0.003 0.001-0.003 0.002-0.003 0.002-0.003
 0.002-0.003 0.003-0.002 0.003-0.002 0.003-0.002 0.003-0.001
 0.003-0.001 0.004-0.000 0.004 0.000 0.004 0.001 0.003 0.001
 0.003 0.001 0.003 0.002 0.003 0.002 0.002 0.003 0.002 0.003
 0.002 0.003 0.001 0.003 0.001 0.003 0.000 0.004-0.000 0.004
-0.001 0.003-0.001 0.003-0.002 0.003-0.002 0.003-0.002 0.003
-0.003 0.002-0.003
 0.000-0.004 0.000-0.004 0.000-0.004 0.000-0.004 0.000-0.004
 0.000-0.004 0.000-0.004 0.000-0.004 0.000-0.004 0.000-0.004
 0.000-0.004 0.000-0.004 0.000-0.004 0.000-0.004 0.000-0.004
 0.000-0.004 0.000-0.004 0.000-0.004 0.000-0.004 0.000-0.004
 0.000-0.004 0.000-0.004 0.000-0.004 0.000-0.004-0.000 0.004
-0.000 0.004-0.000 0.004-0.000 0.004-0.000 0.004-0.000 0.004
-0.000 0.004 0.003
-0.000-0.004-0.001-0.003-0.001-0.003-0.002-0.003-0.002-0.003
-0.002-0.003-0.003-0.002-0.003-0.002-0.003-0.002-0.003-0.001
-0.003-0.001-0.004-0.000-0.004 0.000-0.004 0.001-0.003 0.001
-0.003 0.001-0.003 0.002-0.003 0.002-0.002 0.003-0.002 0.003
-0.002 0.003-0.001 0.003-0.001 0.003-0.000 0.004 0.000 0.004
 0.001 0.003 0.001 0.003 0.002 0.003 0.002 0.003 0.002 0.003
 0.003 0.002-0.003
-0.000-0.004-0.001-0.003-0.002-0.003-0.003-0.002-0.003-0.001
-0.004-0.001-0.004 0.000-0.003 0.001-0.003 0.002-0.002 0.003
-0.002 0.003-0.001 0.003 0.000 0.004 0.001 0.003 0.002 0.003
 0.003 0.002 0.003 0.002 0.003 0.001 0.004-0.000 0.003-0.001
 0.003-0.002 0.002-0.003 0.002-0.003 0.001-0.003 0.001 0.003
 0.002 0.003 0.002 0.003 0.003 0.002 0.003 0.001 0.004 0.000
 0.003-0.001 0.003
-0.001-0.003-0.002-0.003-0.003-0.002-0.003-0.001-0.004 0.001
-0.003 0.002-0.002 0.003-0.001 0.003 0.000 0.004 0.002 0.003
 0.003 0.002 0.003 0.001 0.004-0.000 0.003-0.002 0.002-0.003
 0.001-0.003-0.000-0.004-0.002-0.003-0.003-0.002-0.003-0.001
-0.004 0.000-0.003 0.001-0.002 0.003-0.001 0.003 0.001 0.003
 0.002 0.003 0.003 0.001 0.004 0.000 0.003-0.001 0.003-0.002
 0.002-0.003-0.003
-0.001-0.003-0.002-0.003-0.003-0.001-0.003 0.001-0.003 0.002
-0.001 0.003 0.001 0.003 0.002 0.003 0.003 0.001 0.004-0.001
 0.003-0.002 0.001-0.003-0.000-0.004-0.002-0.003-0.003-0.001
-0.004 0.000-0.003 0.002-0.002 0.003 0.000 0.004 0.002 0.003
 0.003 0.002 0.004-0.000 0.003-0.002 0.002-0.003 0.002 0.003
 0.003 0.002 0.004 0.000 0.003-0.002 0.002-0.003 0.000-0.004
-0.002-0.003 0.003
-0.001-0.003-0.003-0.002-0.004 0.000-0.003 0.002-0.001 0.003
 0.001 0.003 0.003 0.002 0.004-0.000 0.003-0.002 0.001-0.003
-0.002-0.003-0.003-0.002-0.004 0.001-0.002 0.003-0.000 0.004
 0.002 0.003 0.003 0.001 0.003-0.001 0.002-0.003 0.000-0.004
-0.002-0.003-0.003-0.001-0.003 0.001-0.002 0.003 0.002 0.003
 0.003 0.001 0.003-0.001 0.002-0.003-0.000-0.004-0.002-0.003
-0.003-0.001-0.003
-0.001-0.003-0.003-0.001-0.003 0.001-0.002 0.003 0.001 0.003
 0.003 0.002 0.003-0.001 0.002-0.003-0.001-0.003-0.003-0.002
-0.003 0.001-0.002 0.003 0.001 0.003 0.003 0.002 0.004-0.001
 0.002-0.003-0.000-0.004-0.003-0.002-0.004 0.000-0.002 0.003
 0.000 0.004 0.003 0.002 0.004-0.000 0.002-0.003 0.002 0.003
 0.004 0.000 0.003-0.002 0.000-0.004-0.002-0.003-0.004-0.000
-0.003 0.002 0.003
-0.002-0.003-0.003-0.001-0.003 0.002-0.000 0.004 0.003 0.002
 0.003-0.001 0.002-0.003-0.002-0.003-0.003-0.001-0.003 0.002
-0.000 0.004 0.003 0.002 0.003-0.001 0.002-0.003-0.002-0.003
-0.003-0.001-0.003 0.002-0.000 0.004 0.003 0.002 0.003-0.001
 0.002-0.003-0.002-0.003-0.003-0.001-0.003 0.002 0.003 0.002
 0.003-0.001 0.002-0.003-0.002-0.003-0.003-0.001-0.003 0.002
-0.000 0.004-0.003
-0.002-0.003-0.004-0.000-0.002 0.003 0.002 0.003 0.004 0.000
 0.002-0.003-0.001-0.003-0.004-0.001-0.002 0.003 0.001 0.003
 0.003 0.001 0.002-0.003-0.001-0.003-0.003-0.001-0.003 0.002
 0.001 0.003 0.003 0.001 0.003-0.002-0.000-0.004-0.003-0.001
-0.003 0.002 0.000 0.004 0.003 0.002 0.003-0.002 0.003 0.002
 0.003-0.002 0.000-0.004-0.003-0.002-0.003 0.001-0.000 0.004
 0.003 0.002 0.003
-0.002-0.003-0.004 0.001-0.001 0.003 0.003 0.002 0.003-0.002
-0.000-0.004-0.003-0.001-0.002 0.003 0.001 0.003 0.004 0.000
 0.002-0.003-0.002-0.003-0.003 0.001-0.000 0.004 0.003 0.002
 0.003-0.002-0.001-0.003-0.003-0.001-0.002 0.003 0.002 0.003
 0.004-0.000 0.001-0.003-0.003-0.002-0.003 0.001 0.003 0.001
 0.003-0.002-0.001-0.003-0.004-0.000-0.002 0.003 0.002 0.003
 0.003-0.001-0.003
-0.002-0.003-0.003 0.001 0.000 0.004 0.003 0.001 0.002-0.003
-0.002-0.003-0.003 0.002 0.001 0.003 0.004 0.000 0.001-0.003
-0.003-0.002-0.003 0.002 0.001 0.003 0.004-0.000 0.001-0.003
-0.003-0.002-0.003 0.002 0.002 0.003 0.004-0.001 0.000-0.004
-0.003-0.001-0.002 0.003 0.002 0.003 0.003-0.001 0.003 0.001
 0.002-0.003-0.002-0.003-0.003 0.001 0.000 0.004 0.004 0.001
 0.002-0.003 0.003
-0.002-0.003-0.003 0.002 0.001 0.003 0.003-0.001-0.000-0.004
-0.004-0.000-0.001 0.003 0.003 0.001 0.002-0.003-0.003-0.002
-0.003 0.002 0.002 0.003 0.003-0.001-0.001-0.003-0.004 0.000
-0.000 0.004 0.003 0.001 0.002-0.003-0.003-0.002-0.002 0.003
 0.002 0.003 0.003-0.002-0.001-0.003-0.004 0.001 0.004 0.001
 0.001-0.003-0.003-0.002-0.002 0.003 0.002 0.003 0.003-0.002
-0.002-0.003-0.003
-0.002-0.003-0.003 0.002 0.002 0.003 0.003-0.002-0.002-0.003
-0.003 0.002 0.002 0.003 0.003-0.002-0.002-0.003-0.003 0.002
 0.002 0.003 0.003-0.001-0.001-0.003-0.003 0.001 0.001 0.003
 0.003-0.001-0.001-0.003-0.003 0.001 0.001 0.003 0.004-0.001
-0.000-0.004-0.004 0.000 0.000 0.004 0.004-0.000 0.004 0.000
 0.000-0.004-0.004-0.000-0.000 0.004 0.004 0.001 0.001-0.003
-0.003-0.001 0.003
-0.003-0.002-0.002 0.003 0.003 0.002 0.002-0.003-0.003-0.001
-0.001 0.003 0.004 0.001 0.000-0.004-0.004 0.000 0.000 0.004
 0.003-0.001-0.001-0.003-0.003 0.001 0.002 0.003 0.003-0.002
-0.002-0.003-0.002 0.003 0.003 0.002 0.002-0.003-0.003-0.002
-0.001 0.003 0.003 0.001 0.001-0.003-0.004-0.000 0.004-0.000
-0.001-0.003-0.003 0.001 0.001 0.003 0.003-0.002-0.002-0.003
-0.003 0.002-0.003
-0.003-0.002-0.002 0.003 0.003 0.001 0.000-0.004-0.003 0.001
 0.002 0.003 0.003-0.002-0.003-0.002-0.002 0.003 0.003 0.001
 0.000-0.004-0.003 0.001 0.002 0.003 0.003-0.002-0.003-0.002
-0.002 0.003 0.003 0.001 0.000-0.004-0.003 0.001 0.002 0.003
 0.003-0.002-0.003-0.002-0.002 0.003 0.003 0.001 0.003-0.001
-0.002-0.003-0.003 0.002 0.003 0.002 0.002-0.003-0.003-0.001
-0.000 0.004 0.003
-0.003-0.002-0.001 0.003 0.004-0.000-0.002-0.003-0.002 0.003
 0.003 0.001 0.000-0.004-0.003 0.001 0.002 0.003 0.002-0.003
-0.003-0.001 0.000 0.004 0.003-0.002-0.003-0.002-0.001 0.003
 0.004 0.000-0.001-0.003-0.003 0.002 0.003 0.002 0.001-0.003
-0.004 0.001 0.002 0.003 0.002-0.003-0.003-0.001 0.003-0.001
-0.002-0.003-0.002 0.003 0.004 0.001-0.001-0.003-0.003 0.002
 0.003 0.002-0.003
-0.003-0.002-0.000 0.004 0.003-0.001-0.003-0.002-0.001 0.003
 0.003-0.001-0.002-0.003-0.001 0.003 0.004-0.001-0.002-0.003
-0.002 0.003 0.004-0.000-0.002-0.003-0.002 0.003 0.004 0.000
-0.001-0.003-0.002 0.003 0.003 0.001-0.001-0.003-0.003 0.002
 0.003 0.001-0.000-0.004-0.003 0.002 0.003 0.002 0.003-0.002
-0.003-0.002-0.000 0.004 0.003-0.001-0.003-0.002-0.001 0.003
 0.003-0.001 0.003
-0.003-0.002 0.000 0.004 0.003-0.002-0.003-0.001 0.001 0.003
 0.002-0.003-0.004 0.000 0.002 0.003 0.001-0.003-0.003 0.001
 0.003 0.002 0.000-0.004-0.003 0.002 0.003 0.001-0.001-0.003
-0.002 0.003 0.004 0.001-0.002-0.003-0.002 0.003 0.004-0.000
-0.002-0.003-0.001 0.003 0.003-0.001-0.003-0.002 0.003-0.002
-0.003-0.001 0.001 0.003 0.002-0.003-0.004-0.000 0.002 0.003
 0.002-0.003-0.003
-0.003-0.001 0.001 0.003 0.002-0.003-0.003 0.001 0.003 0.002
-0.000-0.004-0.002 0.003 0.004-0.000-0.002-0.003-0.000 0.004
 0.003-0.002-0.004-0.001 0.002 0.003 0.001-0.003-0.003 0.002
 0.003 0.001-0.001-0.003-0.002 0.003 0.003-0.001-0.003-0.002
 0.001 0.003 0.002-0.003-0.004 0.000 0.003 0.002 0.003-0.002
-0.004-0.000 0.002 0.003 0.001-0.003-0.003 0.002 0.003 0.001
-0.002-0.003 0.003
-0.003-0.001 0.002 0.003 0.001-0.003-0.003 0.002 0.004 0.000
-0.003-0.002 0.000 0.004 0.002-0.003-0.003 0.001 0.003 0.001
-0.002-0.003-0.001 0.003 0.003-0.002-0.004-0.000 0.002 0.003
-0.000-0.004-0.002 0.003 0.003-0.001-0.003-0.002 0.001 0.003
 0.001-0.003-0.003 0.002 0.004 0.001-0.002-0.003 0.002-0.003
-0.004 0.001 0.003 0.002-0.001-0.003-0.001 0.003 0.003-0.002
-0.003-0.001-0.003
-0.003-0.001 0.002 0.003-0.000-0.004-0.002 0.003 0.003-0.002
-0.004-0.000 0.003 0.002-0.001-0.003-0.001 0.003 0.002-0.003
-0.003 0.001 0.003 0.001-0.002-0.003 0.000 0.004 0.002-0.003
-0.003 0.002 0.004 0.000-0.003-0.002 0.001 0.003 0.001-0.003
-0.003 0.002 0.004-0.001-0.003-0.001 0.002 0.003 0.002-0.003
-0.003 0.001 0.004 0.001-0.003-0.002 0.001 0.003 0.001-0.003
-0.003 0.002 0.003
-0.003-0.001 0.003 0.002-0.002-0.003-0.000 0.004 0.002-0.003
-0.003 0.002 0.003-0.001-0.003-0.001 0.003 0.002-0.002-0.003
-0.000 0.004 0.002-0.003-0.003 0.002 0.003-0.001-0.003-0.001
 0.003 0.002-0.002-0.003-0.000 0.004 0.002-0.003-0.003 0.002
 0.003-0.001-0.003-0.001 0.003 0.002-0.002-0.003 0.002-0.003
-0.003 0.002 0.003-0.001-0.003-0.001 0.003 0.002-0.002-0.003
-0.000 0.004-0.003
-0.004-0.001 0.003 0.002-0.002-0.003 0.002 0.003-0.000-0.004
-0.001 0.003 0.002-0.003-0.003 0.002 0.003-0.001-0.004 0.000
 0.003 0.001-0.003-0.002 0.002 0.003-0.001-0.003 0.000 0.004
 0.001-0.003-0.002 0.003 0.003-0.002-0.003 0.001 0.004-0.000
-0.003-0.001 0.003 0.002-0.002-0.003 0.001 0.003 0.001-0.003
-0.002 0.003 0.003-0.002-0.003 0.001 0.004 0.000-0.003-0.001
 0.003 0.002 0.003
-0.004-0.000 0.003 0.001-0.003-0.002 0.003 0.002-0.002-0.003
 0.002 0.003-0.001-0.003 0.000 0.004 0.000-0.004-0.001 0.003
 0.002-0.003-0.002 0.003 0.003-0.002-0.003 0.002 0.003-0.001
-0.004 0.001 0.004 0.000-0.003-0.001 0.003 0.001-0.003-0.002
 0.002 0.003-0.002-0.003 0.001 0.003-0.001-0.003 0.001-0.003
-0.001 0.003 0.002-0.003-0.002 0.003 0.003-0.002-0.003 0.001
 0.003-0.001-0.003
-0.004-0.000 0.004 0.000-0.004-0.001 0.003 0.001-0.003-0.001
 0.003 0.001-0.003-0.001 0.003 0.002-0.003-0.002 0.003 0.002
-0.003-0.002 0.003 0.002-0.002-0.003 0.002 0.003-0.002-0.003
 0.002 0.003-0.002-0.003 0.002 0.003-0.001-0.003 0.001 0.003
-0.001-0.003 0.001 0.003-0.000-0.004 0.000 0.004 0.000-0.004
-0.000 0.004 0.001-0.003-0.001 0.003 0.001-0.003-0.001 0.003
 0.002-0.003 0.003
-0.004 0.000 0.004-0.000-0.004 0.001 0.003-0.001-0.003 0.001
 0.003-0.001-0.003 0.001 0.003-0.002-0.003 0.002 0.003-0.002
-0.003 0.002 0.003-0.002-0.002 0.003 0.002-0.003-0.002 0.003
 0.002-0.003-0.002 0.003 0.002-0.003-0.001 0.003 0.001-0.003
-0.001 0.003 0.001-0.003-0.000 0.004 0.000-0.004-0.000-0.004
 0.000 0.004-0.001-0.003 0.001 0.003-0.001-0.003 0.001 0.003
-0.002-0.003-0.003
-0.004 0.000 0.003-0.001-0.003 0.002 0.003-0.002-0.002 0.003
 0.002-0.003-0.001 0.003 0.000-0.004 0.000 0.004-0.001-0.003
 0.002 0.003-0.002-0.003 0.003 0.002-0.003-0.002 0.003 0.001
-0.004-0.001 0.004-0.000-0.003 0.001 0.003-0.001-0.003 0.002
 0.002-0.003-0.002 0.003 0.001-0.003-0.001 0.003-0.001-0.003
 0.001 0.003-0.002-0.003 0.002 0.003-0.003-0.002 0.003 0.001
-0.003-0.001 0.003
-0.004 0.001 0.003-0.002-0.002 0.003 0.002-0.003-0.000 0.004
-0.001-0.003 0.002 0.003-0.003-0.002 0.003 0.001-0.004-0.000
 0.003-0.001-0.003 0.002 0.002-0.003-0.001 0.003 0.000-0.004
 0.001 0.003-0.002-0.003 0.003 0.002-0.003-0.001 0.004 0.000
-0.003 0.001 0.003-0.002-0.002 0.003 0.001-0.003-0.001-0.003
 0.002 0.003-0.003-0.002 0.003 0.001-0.004 0.000 0.003-0.001
-0.003 0.002-0.003
-0.003 0.001 0.003-0.002-0.002 0.003 0.000-0.004 0.002 0.003
-0.003-0.002 0.003 0.001-0.003 0.001 0.003-0.002-0.002 0.003
 0.000-0.004 0.002 0.003-0.003-0.002 0.003 0.001-0.003 0.001
 0.003-0.002-0.002 0.003 0.000-0.004 0.002 0.003-0.003-0.002
 0.003 0.001-0.003 0.001 0.003-0.002-0.002 0.003-0.002-0.003
 0.003 0.002-0.003-0.001 0.003-0.001-0.003 0.002 0.002-0.003
-0.000 0.004 0.003
-0.003 0.001 0.002-0.003-0.000 0.004-0.002-0.003 0.003 0.002
-0.004 0.000 0.003-0.002-0.001 0.003-0.001-0.003 0.002 0.003
-0.003-0.001 0.003-0.001-0.002 0.003 0.000-0.004 0.002 0.003
-0.003-0.002 0.004-0.000-0.003 0.002 0.001-0.003 0.001 0.003
-0.003-0.002 0.004 0.001-0.003 0.001 0.002-0.003-0.002-0.003
 0.003 0.001-0.004 0.001 0.003-0.002-0.001 0.003-0.001-0.003
 0.003 0.002-0.003
-0.003 0.001 0.002-0.003 0.001 0.003-0.003-0.002 0.004-0.000
-0.003 0.002 0.000-0.004 0.002 0.003-0.003-0.001 0.003-0.001
-0.002 0.003-0.001-0.003 0.003 0.002-0.004 0.000 0.002-0.003
-0.000 0.004-0.002-0.003 0.003 0.001-0.003 0.002 0.001-0.003
 0.001 0.003-0.003-0.002 0.004-0.001-0.002 0.003-0.002-0.003
 0.004 0.001-0.003 0.002 0.001-0.003 0.001 0.003-0.003-0.002
 0.003-0.001 0.003
-0.003 0.001 0.001-0.003 0.002 0.003-0.003-0.001 0.003-0.002
-0.000 0.004-0.002-0.003 0.004 0.000-0.002 0.003-0.000-0.004
 0.003 0.002-0.004 0.001 0.002-0.003 0.001 0.003-0.003-0.002
 0.003-0.001-0.001 0.003-0.002-0.003 0.003 0.001-0.003 0.002
 0.001-0.003 0.002 0.003-0.004-0.000 0.003-0.002-0.003-0.002
 0.004-0.000-0.002 0.003-0.001-0.003 0.003 0.002-0.003 0.001
 0.002-0.003-0.003
-0.003 0.002 0.000-0.004 0.003 0.002-0.003 0.001 0.001-0.003
 0.002 0.003-0.004-0.000 0.002-0.003 0.001 0.003-0.003-0.001
 0.003-0.002 0.000 0.004-0.003-0.002 0.003-0.001-0.001 0.003
-0.002-0.003 0.004-0.001-0.002 0.003-0.002-0.003 0.004 0.000
-0.002 0.003-0.001-0.003 0.003 0.001-0.003 0.002-0.003-0.002
 0.003-0.001-0.001 0.003-0.002-0.003 0.004-0.000-0.002 0.003
-0.002-0.003 0.003
-0.003 0.002-0.000-0.004 0.003 0.001-0.003 0.002-0.001-0.003
 0.003 0.001-0.002 0.003-0.001-0.003 0.004 0.001-0.002 0.003
-0.002-0.003 0.004 0.000-0.002 0.003-0.002-0.003 0.004-0.000
-0.001 0.003-0.002-0.003 0.003-0.001-0.001 0.003-0.003-0.002
 0.003-0.001-0.000 0.004-0.003-0.002 0.003-0.002-0.003-0.002
 0.003-0.002 0.000 0.004-0.003-0.001 0.003-0.002 0.001 0.003
-0.003-0.001-0.003
-0.003 0.002-0.001-0.003 0.004 0.000-0.002 0.003-0.002-0.003
 0.003-0.001 0.000 0.004-0.003-0.001 0.002-0.003 0.002 0.003
-0.003 0.001 0.000-0.004 0.003 0.002-0.003 0.002-0.001-0.003
 0.004-0.000-0.001 0.003-0.003-0.002 0.003-0.002 0.001 0.003
-0.004-0.001 0.002-0.003 0.002 0.003-0.003 0.001-0.003-0.001
 0.002-0.003 0.002 0.003-0.004 0.001 0.001-0.003 0.003 0.002
-0.003 0.002 0.003
-0.003 0.002-0.002-0.003 0.003-0.001-0.000 0.004-0.003-0.001
 0.002-0.003 0.003 0.002-0.003 0.002-0.002-0.003 0.003-0.001
-0.000 0.004-0.003-0.001 0.002-0.003 0.003 0.002-0.003 0.002
-0.002-0.003 0.003-0.001-0.000 0.004-0.003-0.001 0.002-0.003
 0.003 0.002-0.003 0.002-0.002-0.003 0.003-0.001-0.003-0.001
 0.002-0.003 0.003 0.002-0.003 0.002-0.002-0.003 0.003-0.001
-0.000 0.004-0.003
-0.003 0.002-0.002-0.003 0.003-0.002 0.002 0.003-0.003 0.001
-0.001-0.003 0.004-0.001 0.000 0.004-0.004-0.000 0.000-0.004
 0.003 0.001-0.001 0.003-0.003-0.001 0.002-0.003 0.003 0.002
-0.002 0.003-0.002-0.003 0.003-0.002 0.002 0.003-0.003 0.002
-0.001-0.003 0.003-0.001 0.001 0.003-0.004 0.000-0.004-0.000
 0.001-0.003 0.003 0.001-0.001 0.003-0.003-0.002 0.002-0.003
 0.003 0.002 0.003
-0.002 0.003-0.003-0.002 0.002-0.003 0.003 0.002-0.002 0.003
-0.003-0.002 0.002-0.003 0.003 0.002-0.002 0.003-0.003-0.002
 0.002-0.003 0.003 0.001-0.001 0.003-0.003-0.001 0.001-0.003
 0.003 0.001-0.001 0.003-0.003-0.001 0.001-0.003 0.004 0.001
-0.000 0.004-0.004-0.000 0.000-0.004 0.004 0.000-0.004 0.000
-0.000-0.004 0.004-0.000 0.000 0.004-0.004 0.001-0.001-0.003
 0.003-0.001-0.003
-0.002 0.003-0.003-0.002 0.001-0.003 0.003 0.001-0.000 0.004
-0.004 0.000-0.001-0.003 0.003-0.001 0.002 0.003-0.003 0.002
-0.003-0.002 0.002-0.003 0.003 0.001-0.001 0.003-0.004-0.000
-0.000-0.004 0.003-0.001 0.002 0.003-0.003 0.002-0.002-0.003
 0.002-0.003 0.003 0.002-0.001 0.003-0.004-0.001-0.004 0.001
-0.001-0.003 0.003-0.002 0.002 0.003-0.002 0.003-0.003-0.002
 0.002-0.003 0.003
-0.002 0.003-0.003-0.001 0.000-0.004 0.003-0.001 0.002 0.003
-0.002 0.003-0.003-0.002 0.001-0.003 0.004-0.000 0.001 0.003
-0.003 0.002-0.003-0.002 0.001-0.003 0.004 0.000 0.001 0.003
-0.003 0.002-0.003-0.002 0.002-0.003 0.004 0.001 0.000 0.004
-0.003 0.001-0.002-0.003 0.002-0.003 0.003 0.001-0.003 0.001
-0.002-0.003 0.002-0.003 0.003 0.001-0.000 0.004-0.004 0.001
-0.002-0.003-0.003
-0.002 0.003-0.004-0.001-0.001-0.003 0.003-0.002 0.003 0.002
-0.000 0.004-0.003 0.001-0.002-0.003 0.001-0.003 0.004-0.000
 0.002 0.003-0.002 0.003-0.003-0.001-0.000-0.004 0.003-0.002
 0.003 0.002-0.001 0.003-0.003 0.001-0.002-0.003 0.002-0.003
 0.004 0.000 0.001 0.003-0.003 0.002-0.003-0.001-0.003 0.001
-0.003-0.002 0.001-0.003 0.004-0.000 0.002 0.003-0.002 0.003
-0.003-0.001 0.003
-0.002 0.003-0.004 0.000-0.002-0.003 0.002-0.003 0.004-0.000
 0.002 0.003-0.001 0.003-0.004 0.001-0.002-0.003 0.001-0.003
 0.003-0.001 0.002 0.003-0.001 0.003-0.003 0.001-0.003-0.002
 0.001-0.003 0.003-0.001 0.003 0.002-0.000 0.004-0.003 0.001
-0.003-0.002 0.000-0.004 0.003-0.002 0.003 0.002-0.003 0.002
-0.003-0.002-0.000-0.004 0.003-0.002 0.003 0.001 0.000 0.004
-0.003 0.002-0.003
-0.002 0.003-0.003 0.001-0.003-0.002 0.000-0.004 0.003-0.002
 0.003 0.001 0.002 0.003-0.002 0.003-0.003 0.001-0.003-0.002
 0.000-0.004 0.003-0.002 0.003 0.001 0.002 0.003-0.002 0.003
-0.003 0.001-0.003-0.002 0.000-0.004 0.003-0.002 0.003 0.001
 0.002 0.003-0.002 0.003-0.003 0.001-0.003-0.002-0.003 0.002
-0.003-0.001-0.002-0.003 0.002-0.003 0.003-0.001 0.003 0.002
-0.000 0.004 0.003
-0.001 0.003-0.003 0.001-0.003-0.001-0.002-0.003 0.001-0.003
 0.003-0.002 0.003 0.001 0.002 0.003-0.001 0.003-0.003 0.002
-0.003-0.001-0.002-0.003 0.001-0.003 0.003-0.002 0.004 0.001
 0.002 0.003-0.000 0.004-0.003 0.002-0.004-0.000-0.002-0.003
 0.000-0.004 0.003-0.002 0.004 0.000 0.002 0.003-0.002 0.003
-0.004 0.000-0.003-0.002-0.000-0.004 0.002-0.003 0.004-0.000
 0.003 0.002-0.003
-0.001 0.003-0.003 0.002-0.004-0.000-0.003-0.002-0.001-0.003
 0.001-0.003 0.003-0.002 0.004 0.000 0.003 0.002 0.001 0.003
-0.002 0.003-0.003 0.002-0.004-0.001-0.002-0.003-0.000-0.004
 0.002-0.003 0.003-0.001 0.003 0.001 0.002 0.003 0.000 0.004
-0.002 0.003-0.003 0.001-0.003-0.001-0.002-0.003-0.002 0.003
-0.003 0.001-0.003-0.001-0.002-0.003 0.000-0.004 0.002-0.003
 0.003-0.001 0.003
-0.001 0.003-0.002 0.003-0.003 0.001-0.003-0.001-0.003-0.002
-0.001-0.003 0.001-0.003 0.002-0.003 0.003-0.001 0.004 0.001
 0.003 0.002 0.001 0.003-0.000 0.004-0.002 0.003-0.003 0.001
-0.004-0.000-0.003-0.002-0.002-0.003 0.000-0.004 0.002-0.003
 0.003-0.002 0.004 0.000 0.003 0.002 0.002 0.003-0.002 0.003
-0.003 0.002-0.004 0.000-0.003-0.002-0.002-0.003-0.000-0.004
 0.002-0.003-0.003
-0.001 0.003-0.002 0.003-0.003 0.002-0.003 0.001-0.004-0.001
-0.003-0.002-0.002-0.003-0.001-0.003 0.000-0.004 0.002-0.003
 0.003-0.002 0.003-0.001 0.004 0.000 0.003 0.002 0.002 0.003
 0.001 0.003-0.000 0.004-0.002 0.003-0.003 0.002-0.003 0.001
-0.004-0.000-0.003-0.001-0.002-0.003-0.001-0.003-0.001 0.003
-0.002 0.003-0.003 0.001-0.004 0.000-0.003-0.001-0.003-0.002
-0.002-0.003 0.003
-0.000 0.004-0.001 0.003-0.002 0.003-0.003 0.002-0.003 0.001
-0.004 0.001-0.004-0.000-0.003-0.001-0.003-0.002-0.002-0.003
-0.002-0.003-0.001-0.003 0.000-0.004 0.001-0.003 0.002-0.003
 0.003-0.002 0.003-0.002 0.003-0.001 0.004 0.000 0.003 0.001
 0.003 0.002 0.002 0.003 0.002 0.003 0.001 0.003-0.001 0.003
-0.002 0.003-0.002 0.003-0.003 0.002-0.003 0.001-0.004 0.000
-0.003-0.001-0.003
-0.000 0.004-0.001 0.003-0.001 0.003-0.002 0.003-0.002 0.003
-0.002 0.003-0.003 0.002-0.003 0.002-0.003 0.002-0.003 0.001
-0.003 0.001-0.004 0.000-0.004-0.000-0.004-0.001-0.003-0.001
-0.003-0.001-0.003-0.002-0.003-0.002-0.002-0.003-0.002-0.003
-0.002-0.003-0.001-0.003-0.001-0.003-0.000-0.004-0.000 0.004
-0.001 0.003-0.001 0.003-0.002 0.003-0.002 0.003-0.002 0.003
-0.003 0.002 0.003
-0.000 0.004-0.000 0.004-0.000 0.004-0.000 0.004-0.000 0.004
-0.000 0.004-0.000 0.004-0.000 0.004-0.000 0.004-0.000 0.004
-0.000 0.004-0.000 0.004-0.000 0.004-0.000 0.004-0.000 0.004
-0.000 0.004-0.000 0.004-0.000 0.004-0.000 0.004-0.000 0.004
-0.000 0.004-0.000 0.004-0.000 0.004-0.000 0.004-0.000 0.004
-0.000 0.004-0.000 0.004-0.000 0.004-0.000 0.004-0.000 0.004
-0.000 0.004-0.003
  test othonorm. of rows, no output: o k
 
  meval set to                     98
 p001.coord      is written
 p002.coord      is written
 p003.coord      is written
 p004.coord      is written
 p005.coord      is written
 p006.coord      is written
 p007.coord      is written
 p008.coord      is written
 p009.coord      is written
 p010.coord      is written
 p011.coord      is written
 p012.coord      is written
 p013.coord      is written
 p014.coord      is written
 p015.coord      is written
 p016.coord      is written
 p017.coord      is written
 p018.coord      is written
 p019.coord      is written
 p020.coord      is written
 p021.coord      is written
 p022.coord      is written
 p023.coord      is written
 p024.coord      is written
 p025.coord      is written
 p026.coord      is written
 p027.coord      is written
 p028.coord      is written
 p029.coord      is written
 p030.coord      is written
 p031.coord      is written
 p032.coord      is written
 p033.coord      is written
 p034.coord      is written
 p035.coord      is written
 p036.coord      is written
 p037.coord      is written
 p038.coord      is written
 p039.coord      is written
 p040.coord      is written
 p041.coord      is written
 p042.coord      is written
 p043.coord      is written
 p044.coord      is written
 p045.coord      is written
 p046.coord      is written
 p047.coord      is written
 p048.coord      is written
 p049.coord      is written
 p050.coord      is written
 p051.coord      is written
 p052.coord      is written
 p053.coord      is written
 p054.coord      is written
 p055.coord      is written
 p056.coord      is written
 p057.coord      is written
 p058.coord      is written
 p059.coord      is written
 p060.coord      is written
 p061.coord      is written
 p062.coord      is written
 p063.coord      is written
 p064.coord      is written
 p065.coord      is written
 p066.coord      is written
 p067.coord      is written
 p068.coord      is written
 p069.coord      is written
 p070.coord      is written
 p071.coord      is written
 p072.coord      is written
 p073.coord      is written
 p074.coord      is written
 p075.coord      is written
 p076.coord      is written
 p077.coord      is written
 p078.coord      is written
 p079.coord      is written
 p080.coord      is written
 p081.coord      is written
 p082.coord      is written
 p083.coord      is written
 p084.coord      is written
 p085.coord      is written
 p086.coord      is written
 p087.coord      is written
 p088.coord      is written
 p089.coord      is written
 p090.coord      is written
 p091.coord      is written
 p092.coord      is written
 p093.coord      is written
 p094.coord      is written
 p095.coord      is written
 p096.coord      is written
 p097.coord      is written
 p098.coord      is written


    ------------------------------------------------------------------------
         total  cpu-time :   0.06 seconds
         total wall-time :   0.06 seconds
    ------------------------------------------------------------------------

   ****  ruecker : all done  ****


    2018-02-09 11:43:41.178 

