30
	Energy:    1239.1028176
C         13.86769        7.85450       13.28998
C         12.36750        7.95320       13.13457
C         11.16843        8.45568       13.62713
C         10.06172        7.97386       12.70486
C          8.02085        7.44702       11.53067
C          8.81442        6.63488       10.50637
C          8.81336        5.84340        9.35366
C         10.25459        5.44794        9.06526
C         12.42709        4.65056        8.33733
C         13.02904        5.34172        9.46382
C         14.32292        5.66406       10.19118
C         14.06915        6.46841       11.31183
C         11.98096        7.28823       12.08925
C         10.66152        7.31273       11.86182
C         10.08063        6.67072       10.81113
C         10.87761        6.01291       10.01221
C         12.20112        5.96043       10.19970
C         12.78284        6.57622       11.21238
H         14.34126        8.36178       14.12305
N         14.62175        7.16296       12.43338
N         11.01712        4.71941        8.15643
N          8.62194        8.06760       12.55420
H          6.94453        7.52022       11.42255
H         13.04058        4.09101        7.64481
H          8.30798        5.34785        8.53127
H         15.40067        5.54335       10.23017
H         10.58547        9.02667       14.34230
H          7.75778        5.81641        9.10377
H         11.50151        9.00900       14.49920
H         15.04665        5.14132        9.57433
