
OPTIMIZATION CYCLE 70
Wed Mar  7 21:06:18 PST 2018
 hostname is c-7-27.local

 frog (c-7-27.local) : TURBOMOLE V7.1 ( ) 5 Apr 2016 at 11:29:09
 Copyright (C) 2016 TURBOMOLE GmbH, Karlsruhe


    2018-03-07 21:06:18.521 


 frog (c-7-27.local) : TURBOMOLE V7.1 ( ) 5 Apr 2016 at 11:29:09
 Copyright (C) 2016 TURBOMOLE GmbH, Karlsruhe


    2018-03-07 21:06:18.521 

 
       `--._            A b     I n i t i o           .-
            `.  M o l e c u l a r   D y n a m i c s  /
              \               .-.       .           / 
               \             /   \     / `.        /  
                `-----._    /     `._.'    `--.__.'   
                        `--'                          
 
 

Reading information from mdmaster                                                                        
 
 =========================================
 TDDFT-SURFACE HOPPING switched on
 Tapavicza, Meyer, and Furche,
 Phys. Chem. Chem. Phys. 13 (2011), 20986.
 =========================================
 
 found keyword $gap_threshold; hop is enforced if gap <  0.500000000000000     
Reading log history information from mdmaster                                                                        
Reading input data from mdlog.1                                                                         
Checking for non-default isotopic masses in control                                                                         
 
No constraints requested.
Reading status from mdmaster                                                                        
Reading actions from mdmaster                                                                        
Getting gradients from control                                                                         
 non-adiabatic coupling vector
  0.554525210952070       0.253808203142060       4.007747212124400E-002
  -1.35715454369520      -0.675552534953760      -0.177523088044920     
 -3.667158806373500E-002 -0.101119715464960      -3.333667516516900E-002
  3.901910348517400E-003 -9.021871190398101E-003  9.744460299225301E-003
  3.784789704598100E-002 -3.055456063802500E-002 -1.390659567660300E-003
 -4.951150938845500E-003  1.800866822693400E-002  3.710729350288300E-003
 -5.024560758074700E-002  0.107619732223890      -3.399385899219500E-003
 -1.073256982157300E-002 -1.134782923005200E-002 -3.111267934508900E-003
  0.884248454821110       0.456136760666250       0.167064274254040     
 leap: Read last 2 entries of RUN.dat
 Old state:           0
 New state:           0
 Propagating Coefficients
 
 ==============Surface Hopping Information================
 
 Probability from           1 to           2 :  2.189601321488588E-002
 Random number   0.317919829871126     
 
 COEFF OF STATE           1 = (0.962188482794782,-7.494868107792469E-003)
 COEFF OF STATE           2 = (0.175948274804278,0.207796427116969)
 
 POPULATION OF STATE           1 =  0.925862849470878     
 POPULATION OF STATE           2 =  7.413715052917942E-002
 SUM OF ALL POPULATIONS =   1.00000000000006     
 
 =========================================================
 
Scaling KE by    1.00393342301    
 
Generating $log data for last completed MD step:                                
t=   2760.00000000                                                              
-0.785753973950E-01  0.417400923273     -0.438498349601     ti                  
 0.844772982208      -3.62661452976       3.40640017923     o                   
 -2.44600009772     -0.665214155947      -2.51974140526     o                   
 -4.01915615096      -1.48576252261      -2.31508306728     h                   
-0.687494139917       2.55730583581       2.52503741917     o                   
-0.182914235204       2.80090841719       4.35604014232     h                   
  2.59637936722      0.623518597442      -2.29705144442     o                   
  2.19389908944      0.679262827842      -4.09623593442     h                   
 0.858748672463      -4.19497294640       5.20063341391     h                   
  40.0000000000       0.00000000000                                             
ti        0.213811311483E-03  0.131635288130E-04  0.157142903083E-03            
o         0.155904406038E-03  0.493232804950E-04  0.195640277843E-03            
o        -0.160010494577E-05 -0.428807084193E-04 -0.383323652547E-03            
h         0.375976572024E-03  0.449779732793E-03 -0.107903715163E-02            
o        -0.316711597614E-03  0.412539211537E-03  0.290515205929E-04            
h         0.782444559884E-03 -0.234635131556E-02  0.187854162805E-02            
o        -0.422899548343E-03 -0.475740124620E-03 -0.141352398396E-03            
h        -0.108622179859E-02  0.329891007907E-02 -0.211209971200E-02            
h        -0.942268122089E-03 -0.112696667272E-02 -0.139341520319E-02            
 0.436275165024E-01  -1151.91710873       0.00000000000                         
 0.235974894826E-01 -0.424930707202E-02 -0.115635534981                         
-0.274940226478E-02  0.211956179090E-02  0.169937462089E-01                     
-0.180204839273E-01 -0.103051815996E-01 -0.448595081845E-02                     
 0.201276526887E-01  0.769201543476E-02 -0.126451351189E-02                     
-0.175547509352E-01  0.269318557207E-01  0.212704385769E-01                     
 0.877374808793E-02  0.982571208222E-02  0.464521252419E-01                     
-0.121605743805E-01 -0.876110207123E-02  0.195400919355E-01                     
-0.928130879970E-02  0.298823552983E-02 -0.403957269365E-02                     
 0.726763004516E-02 -0.262417898267E-01  0.211691700373E-01                     
 

   Time t=   2760.00000000     a.u. (  66.7588800000     fs)

   e x e c u t i n g    M D   s t e p   (leapfrog algorithm)

   Number of MD steps left:    1430
 
   Time t=   2800.00000000     a.u. (  67.7264000000     fs)

 
Provisional $current data:                                                      
t=   2800.00000000                                                              
-0.704553494555E-01  0.418005329471     -0.430093707733     ti                  
 0.851159990810      -3.62475787782       3.41329351249     o                   
 -2.44507549717     -0.666364041452      -2.53482825185     o                   
 -4.02164400227      -1.47446944642      -2.35714343042     h                   
-0.699199549215       2.57232992118       2.52503258256     o                   
-0.159256525512       2.69849825446       4.39073186398     h                   
  2.58013051507      0.604969627001      -2.30377751088     o                   
  2.15853226787      0.808617111993      -4.17720231232     h                   
 0.814729384077      -4.21720058315       5.12646295100     h                   
  40.0000000000       0.00000000000                                             
ti        0.203400051451E-03  0.151398430920E-04  0.210528878787E-03            
o         0.159988941923E-03  0.465074964468E-04  0.172671928749E-03            
o         0.231604296062E-04 -0.288036194561E-04 -0.377912223662E-03            
h        -0.623184849151E-04  0.282881615481E-03 -0.105357506388E-02            
o        -0.293210196691E-03  0.376340110264E-03 -0.121152876268E-06            
h         0.592604797948E-03 -0.256528440756E-02  0.868997082730E-03            
o        -0.407019439809E-03 -0.464635377792E-03 -0.168482042728E-03            
h        -0.885907741006E-03  0.324021092582E-02 -0.202813647826E-02            
h        -0.110264441654E-02 -0.556782729929E-03 -0.185790479129E-02            
 
    50 energy records for statistics read from mdlog.1                                                                         
       Total Energy (H):
              current value   -1151.87348121    
                    average   -1151.87398589    
         standard deviation   0.284677646008E-02
                      drift  -0.277999869104E-04
        jump from last step   0.254116997667E-03
 
     Kinetic Energy (H):
              current value   0.436275165024E-01
                    average   0.421280998133E-01
         standard deviation   0.525494426416E-02
                      drift  -0.760197213003E-04
 avg. quasi-temperature (K)    1266.83716403    
      number of constraints       0
 
         Pressure (GPa):
              current value    0.00000000000    
                    average    0.00000000000    
 
 
   approx integration error   0.114036550212E-01
 
Estimated integration error by reading last steps from mdlog.1                  
 
Generating $log data for last completed MD step:                                
t=   2760.00000000                                                              
-0.785753973950E-01  0.417400923273     -0.438498349601     ti                  
 0.844772982208      -3.62661452976       3.40640017923     o                   
 -2.44600009772     -0.665214155947      -2.51974140526     o                   
 -4.01915615096      -1.48576252261      -2.31508306728     h                   
-0.687494139917       2.55730583581       2.52503741917     o                   
-0.182914235204       2.80090841719       4.35604014232     h                   
  2.59637936722      0.623518597442      -2.29705144442     o                   
  2.19389908944      0.679262827842      -4.09623593442     h                   
 0.858748672463      -4.19497294640       5.20063341391     h                   
  40.0000000000       0.00000000000                                             
ti        0.213811311483E-03  0.131635288130E-04  0.157142903083E-03            
o         0.155904406038E-03  0.493232804950E-04  0.195640277843E-03            
o        -0.160010494577E-05 -0.428807084193E-04 -0.383323652547E-03            
h         0.375976572024E-03  0.449779732793E-03 -0.107903715163E-02            
o        -0.316711597614E-03  0.412539211537E-03  0.290515205929E-04            
h         0.782444559884E-03 -0.234635131556E-02  0.187854162805E-02            
o        -0.422899548343E-03 -0.475740124620E-03 -0.141352398396E-03            
h        -0.108622179859E-02  0.329891007907E-02 -0.211209971200E-02            
h        -0.942268122089E-03 -0.112696667272E-02 -0.139341520319E-02            
 0.436275165024E-01  -1151.91710873       0.00000000000                         
 0.235974894826E-01 -0.424930707202E-02 -0.115635534981                         
-0.274940226478E-02  0.211956179090E-02  0.169937462089E-01                     
-0.180204839273E-01 -0.103051815996E-01 -0.448595081845E-02                     
 0.201276526887E-01  0.769201543476E-02 -0.126451351189E-02                     
-0.175547509352E-01  0.269318557207E-01  0.212704385769E-01                     
 0.877374808793E-02  0.982571208222E-02  0.464521252419E-01                     
-0.121605743805E-01 -0.876110207123E-02  0.195400919355E-01                     
-0.928130879970E-02  0.298823552983E-02 -0.403957269365E-02                     
 0.726763004516E-02 -0.262417898267E-01  0.211691700373E-01                     
 
Generated $current data for new MD step:                                        
t=   2800.00000000                                                              
-0.704553494555E-01  0.418005329471     -0.430093707733     ti                  
 0.851159990810      -3.62475787782       3.41329351249     o                   
 -2.44507549717     -0.666364041452      -2.53482825185     o                   
 -4.02164400227      -1.47446944642      -2.35714343042     h                   
-0.699199549215       2.57232992118       2.52503258256     o                   
-0.159256525512       2.69849825446       4.39073186398     h                   
  2.58013051507      0.604969627001      -2.30377751088     o                   
  2.15853226787      0.808617111993      -4.17720231232     h                   
 0.814729384077      -4.21720058315       5.12646295100     h                   
  40.0000000000       0.00000000000                                             
ti        0.203400051451E-03  0.151398430920E-04  0.210528878787E-03            
o         0.159988941923E-03  0.465074964468E-04  0.172671928749E-03            
o         0.231604296062E-04 -0.288036194561E-04 -0.377912223662E-03            
h        -0.623184849151E-04  0.282881615481E-03 -0.105357506388E-02            
o        -0.293210196691E-03  0.376340110264E-03 -0.121152876268E-06            
h         0.592604797948E-03 -0.256528440756E-02  0.868997082730E-03            
o        -0.407019439809E-03 -0.464635377792E-03 -0.168482042728E-03            
h        -0.885907741006E-03  0.324021092582E-02 -0.202813647826E-02            
h        -0.110264441654E-02 -0.556782729929E-03 -0.185790479129E-02            
 
Logging MD run data ($log) to file mdlog.1                                                                         
Writing data for next step ($current) to mdlog.1                                                                         

    2018-03-07 21:06:18.751 

         total cpu-time :   0.23 seconds
         total wall-time :   0.23 seconds

          ******************************************************



    ------------------------------------------------------------------------
         total  cpu-time :   0.23 seconds
         total wall-time :   0.23 seconds
    ------------------------------------------------------------------------

   ****  frog : all done  ****


    2018-03-07 21:06:18.751 

 operating system is UNIX !
 hostname is c-7-27.local

 ridft (c-7-27.local) : TURBOMOLE V7.1 ( ) 5 Apr 2016 at 11:29:09
 Copyright (C) 2016 TURBOMOLE GmbH, Karlsruhe


    2018-03-07 21:06:18.831 



                                  r i d f t

                        DFT program with RI approximation 
                                for coulomb part 




                                                 
                                 References:     
                                                 
          TURBOMOLE:                             
              R. Ahlrichs, M. Baer, M. Haeser, H. Horn, and
              C. Koelmel
              Electronic structure calculations on workstation
              computers: the program system TURBOMOLE
              Chem. Phys. Lett. 162: 165 (1989)
          Density Functional:                              
              O. Treutler and R. Ahlrichs                      
              Efficient Molecular Numerical Integration Schemes
              J. Chem. Phys. 102: 346 (1995)                   
          Parallel Version:                                
              Performance of parallel TURBOMOLE for Density    
              Functional Calculations                          
              M. v. Arnim and R. Ahlrichs                      
              J. Comp. Chem. 19: 1746 (1998)                   
          RI-J Method:                                     
              Auxiliary Basis Sets to approximate Coulomb      
              Potentials                                       
              Chem. Phys. Lett. 240: 283 (1995)                
              K. Eichkorn, O. Treutler, H. Oehm, M. Haeser     
              and R. Ahlrichs                                  
              Chem. Phys. Lett. 242: 652 (1995)                
                                                           
              Auxiliary Basis Sets for Main Row Atoms and their
              Use to approximate Coulomb Potentials            
              K. Eichkorn, F. Weigend, O. Treutler and         
              R. Ahlrichs                                      
              Theo. Chem. Acc. 97: 119 (1997)                   
                                                           
              Accurate Coulomb-fitting basis sets for H to Rn 
              F. Weigend                                        
              Phys. Chem. Chem. Phys. 8: 1057 (2006)            
                                                           
          Multipole accelerated RI-J (MARI-J):             
              Fast evaluation of the Coulomb potential for     
              electron densities using multipole accelerated   
              resolution of identity approximation             
              M. Sierka, A. Hogekamp and R. Ahlrichs           
              J. Chem. Phys. 118: 9136 (2003)                  
          RI-JK Method:                                     
              A fully direct RI-HF algorithm: Implementation,
              optimised auxiliary basis sets, demonstration of
              accuracy and efficiency                         
              F. Weigend                                      
              Phys. Chem. Chem. Phys. 4: 4285 (2002)           
          Two-component HF and DFT with spin-orbit coupling:  
              Self-consistent treatment of spin-orbit         
              interactions with efficient Hartree-Fock and    
              density functional methods                      
              M. K. Armbruster, F. Weigend, C. van Wüllen and 
              W. Klopper                                      
              Phys. Chem. Chem. Phys. 10: 1748 (2008)         
          Relativistic all-electron 2c calculations           
              An efficient implementation of two-component    
              relativistic exact-decoupling methods for large 
              molecules                                       
              D. Peng, N. Middendorf, F. Weigend, M. Reiher   
              J. Chem. Phys. 138, 184105 (2013)               
                                         


 


              +--------------------------------------------------+
              |      general information about current run       |
              +--------------------------------------------------+

 

 DENSITY CONVERGENCE CHECK SWITCHED ON !
 SCF CONVERGENCE IF RMS(delta[D]) <     0.1000000000E-06

 PBE0 hybrid functional
 exchange:    3/4 (LDA+PBE) + 1/4 HF
 correlation: LDA (PW) + PBE
 A Hybrid-DFT calculation using the RI-J approximation will be carried out.
 Allocatable memory for RI due to $ricore (MB):         500


              +--------------------------------------------------+
              | Atomic coordinate, charge and isotop information |
              +--------------------------------------------------+

                    atomic coordinates            atom    charge  isotop
         -0.07045535    0.41800533   -0.43009371    ti    22.000     0
          0.85115999   -3.62475788    3.41329351    o      8.000     0
         -2.44507550   -0.66636404   -2.53482825    o      8.000     0
         -4.02164400   -1.47446945   -2.35714343    h      1.000     0
         -0.69919955    2.57232992    2.52503258    o      8.000     0
         -0.15925653    2.69849825    4.39073186    h      1.000     0
          2.58013052    0.60496963   -2.30377751    o      8.000     0
          2.15853227    0.80861711   -4.17720231    h      1.000     0
          0.81472938   -4.21720058    5.12646295    h      1.000     0
 
       center of nuclear mass  :    0.00000000    0.00000000   -0.00000001
       center of nuclear charge:   -0.00795746   -0.03274166    0.03997500

              +--------------------------------------------------+
              |               basis set information              |
              +--------------------------------------------------+

              we will work with the 1s 3p 5d 7f 9g ... basis set
              ...i.e. with spherical basis functions...

   type   atoms  prim   cont   basis
   ---------------------------------------------------------------------------
    ti       1     73     31   def2-SVP   [5s3p2d1f|14s9p5d1f]
    o        4     24     14   def2-SVP   [3s2p1d|7s4p1d]
    h        4      7      5   def2-SVP   [2s1p|4s1p]
   ---------------------------------------------------------------------------
   total:    9    197    107
   ---------------------------------------------------------------------------

   total number of primitive shells          :   46
   total number of contracted shells         :   47
   total number of cartesian basis functions :  116
   total number of SCF-basis functions       :  107


 integral neglect threshold       :  0.29E-10
 integral storage threshold THIZE :  0.10E-04
 integral storage threshold THIME :         5

 RI-J AUXILIARY BASIS SET information:

              we will work with the 1s 3p 5d 7f 9g ... basis set
              ...i.e. with spherical basis functions...

   type   atoms  prim   cont   basis
   ---------------------------------------------------------------------------
    ti       1    107     89   def2-SVP   [8s5p5d2f3g|19s5p5d3f3g]
    o        4     70     49   def2-SVP   [6s4p3d1f1g|12s5p4d2f1g]
    h        4     16     11   def2-SVP   [3s1p1d|5s2p1d]
   ---------------------------------------------------------------------------
   total:    9    451    329
   ---------------------------------------------------------------------------

   total number of primitive shells          :   67
   total number of contracted shells         :  103
   total number of cartesian basis functions :  410
   total number of SCF-basis functions       :  329


 symmetry group of the molecule :   c1 

 the group has the following generators :
   c1(z)

    1 symmetry operations found

 there are 1 real representations :   a   

 maximum number of shells which are related by symmetry :  1


    mo occupation :
   irrep   mo's   occupied
    a      107       29
 
 number of basis functions   :          107
 number of occupied orbitals :           29
 
  
           ------------------
           density functional
           ------------------
 PBE0 hybrid functional
 exchange:    3/4 (LDA+PBE) + 1/4 HF
 correlation: LDA (PW) + PBE
 iterations will be done with small grid
  
 spherical integration : Lebedev's spherical grid
 spherical gridsize    :           3
    i.e. gridpoints    :         302
 value for diffuse not defined
 radial integration    : Chebyshev 2nd kind (scaling 3)
 radial gridsize       :           3
 integration cells     :           9
 partition function    : becke
 partition sharpness   :           3
  

 biggest AO integral is expected to be    13.493451081
  
           ------------------------
               RI-J - INFORMATION
           ------------------------
 Contributions to RI integral batches: 
  neglected integral batches:         128
  direct contribution:                  0
  memory contribution:        1000
 Memory core needed for (P|Q) and Cholesky      1 MByte
 Memory core minimum needed except of (P|Q)     1 MByte
 Total minimum memory core needed (sum)         1 MByte
  
 ****************************************
 Memory allocated for RI-J    21 MByte
 ****************************************
                                            

          ------------------------
          nuclear repulsion energy  :   293.033095834    
          ------------------------

 
          -----------------
          -S,T+V- integrals
          -----------------

 1e-integrals will be neglected if expon. factor < 0.288100E-11
 
   Difference densities algorithm switched on.
   The maximal number of linear combinations of
   difference densities is          20 .

 DIIS switched on: error vector is FDS-SDF
 Max. Iterations for DIIS is     :   4
 DIIS matrix (see manual) 
    Scaling factor of diagonals  :  1.200
    threshold for scaling factor :  0.000

 scf convergence criterion : increment of total energy < .1000000D-06
                  and increment of one-electron energy < .1000000D-03

  MOs are in ASCII format !


 automatic virtual orbital shift switched on 
      shift if e(lumo)-e(homo) < 0.10000000    


 reading orbital data $scfmo  from file mos
 orbital characterization : scfconv=7

 DSCF restart information will be dumped onto file mos


 Starting SCF iterations

          Overall gridpoints after grid construction =         13540

 ITERATION  ENERGY          1e-ENERGY        2e-ENERGY     RMS[dD(SAO)]   TOL
   1  -1151.9106541096    -2163.9525062     719.00875625    0.000D+00 0.287D-10
                            Exc = -58.4791299714     Coul =  796.249066608    
                            exK = -18.7611803864    
                              N = 58.000225478    
                            current damping = 0.700
 
          max. resid. norm for Fia-block=  1.577D-02 for orbital     19a         
          max. resid. fock norm         =  9.357D-02 for orbital    104a         

 ITERATION  ENERGY          1e-ENERGY        2e-ENERGY     RMS[dD(SAO)]   TOL
   2  -1151.9125915769    -2163.7860791     718.84039170    0.887D-03 0.182D-10
                            Exc = -58.4771351188      Eck =  777.317526816    
                              N = 58.000220119    
                            current damping = 0.650
 
          Norm of current diis error: 0.52351E-01
          max. resid. norm for Fia-block=  8.783D-03 for orbital     29a         
          max. resid. fock norm         =  4.042D-02 for orbital    104a         

 ITERATION  ENERGY          1e-ENERGY        2e-ENERGY     RMS[dD(SAO)]   TOL
   3  -1151.9098080152    -2164.7094723     719.76656843    0.138D-02 0.166D-10
                            Exc = -58.4729710204      Eck =  778.239539448    
                              N = 58.000226355    
                            current damping = 0.700
 
          Norm of current diis error: 0.14281    
          max. resid. norm for Fia-block=  3.562D-03 for orbital     22a         
          max. resid. fock norm         =  1.598D-02 for orbital    104a         

 ITERATION  ENERGY          1e-ENERGY        2e-ENERGY     RMS[dD(SAO)]   TOL
   4  -1151.9125716883    -2164.2076080     719.26194052    0.588D-03 0.145D-10
                            Exc = -58.4762904443      Eck =  777.738230968    
                              N = 58.000223760    
                            current damping = 0.750
 
          Norm of current diis error: 0.65870E-01
          max. resid. norm for Fia-block=  2.332D-03 for orbital     25a         
          max. resid. fock norm         =  6.444D-03 for orbital    104a         

 ITERATION  ENERGY          1e-ENERGY        2e-ENERGY     RMS[dD(SAO)]   TOL
   5  -1151.9132377842    -2163.9971045     719.05077086    0.340D-03 0.130D-10
                            Exc = -58.4769382632      Eck =  777.527709121    
                              N = 58.000220926    
                            current damping = 0.600
 
          Norm of current diis error: 0.25232E-01
          max. resid. norm for Fia-block=  2.035D-03 for orbital     22a         
          max. resid. fock norm         =  2.780D-03 for orbital     62a         
          mo-orthogonalization: Cholesky decomposition

 ITERATION  ENERGY          1e-ENERGY        2e-ENERGY     RMS[dD(SAO)]   TOL
   6  -1151.9133362552    -2163.9684222     719.02199007    0.217D-03 0.107D-10
                            Exc = -58.4757862701      Eck =  777.497776345    
                              N = 58.000218506    
                            current damping = 0.450
 
          Norm of current diis error: 0.11039E-01
          max. resid. norm for Fia-block=  9.061D-04 for orbital     22a         
          max. resid. fock norm         =  1.203D-03 for orbital    104a         

 ITERATION  ENERGY          1e-ENERGY        2e-ENERGY     RMS[dD(SAO)]   TOL
   7  -1151.9133479994    -2163.8807058     718.93426194    0.105D-03 0.986D-11
                            Exc = -58.4770373750      Eck =  777.411299316    
                              N = 58.000219388    
                            current damping = 0.300
 
          Norm of current diis error: 0.75280E-02
          max. resid. norm for Fia-block=  3.191D-04 for orbital     29a         
          max. resid. fock norm         =  3.820D-04 for orbital     30a         
          irrep a   : virtual orbitals shifted by    0.00739

 ITERATION  ENERGY          1e-ENERGY        2e-ENERGY     RMS[dD(SAO)]   TOL
   8  -1151.9133585252    -2163.9345553     718.98810095    0.710D-04 0.913D-11
                            Exc = -58.4765084637      Eck =  777.464609414    
                              N = 58.000219954    
                            current damping = 0.350
 
          Norm of current diis error: 0.19463E-02
          max. resid. norm for Fia-block=  2.523D-04 for orbital     28a         
          max. resid. fock norm         =  2.688D-04 for orbital     28a         
          irrep a   : virtual orbitals shifted by    0.00373

 ITERATION  ENERGY          1e-ENERGY        2e-ENERGY     RMS[dD(SAO)]   TOL
   9  -1151.9133607981    -2163.9255794     718.97912273    0.483D-04 0.841D-11
                            Exc = -58.4766555756      Eck =  777.455778304    
                              N = 58.000220263    
                            current damping = 0.400
 
          Norm of current diis error: 0.95177E-03
          max. resid. norm for Fia-block=  1.681D-04 for orbital     28a         
          max. resid. fock norm         =  1.766D-04 for orbital     28a         
          irrep a   : virtual orbitals shifted by    0.00008

 ITERATION  ENERGY          1e-ENERGY        2e-ENERGY     RMS[dD(SAO)]   TOL
  10  -1151.9133616550    -2163.9217134     718.97525592    0.319D-04 0.799D-11
                            Exc = -58.4766229049      Eck =  777.451878827    
                              N = 58.000220617    
                            current damping = 0.250
 
          Norm of current diis error: 0.11135E-02
          max. resid. norm for Fia-block=  1.311D-04 for orbital     28a         
          max. resid. fock norm         =  1.397D-04 for orbital     28a         
          irrep a   : virtual orbitals shifted by    0.01087
          mo-orthogonalization: Cholesky decomposition

 ITERATION  ENERGY          1e-ENERGY        2e-ENERGY     RMS[dD(SAO)]   TOL
  11  -1151.9133624398    -2163.9262844     718.97982615    0.257D-04 0.768D-11
                            Exc = -58.4766242355      Eck =  777.456450382    
                              N = 58.000220943    
                            current damping = 0.300
 
          Norm of current diis error: 0.54529E-03
          max. resid. norm for Fia-block=  1.750D-04 for orbital     28a         
          max. resid. fock norm         =  1.846D-04 for orbital     28a         
          irrep a   : virtual orbitals shifted by    0.00729

 ITERATION  ENERGY          1e-ENERGY        2e-ENERGY     RMS[dD(SAO)]   TOL
  12  -1151.9133631379    -2163.9273846     718.98092563    0.335D-04 0.724D-11
                            Exc = -58.4765983032      Eck =  777.457523937    
                              N = 58.000221276    
                            current damping = 0.150
 
          Norm of current diis error: 0.53330E-03
          max. resid. norm for Fia-block=  6.006D-05 for orbital     28a         
          max. resid. fock norm         =  6.616D-05 for orbital     30a         
          irrep a   : virtual orbitals shifted by    0.01796

 ITERATION  ENERGY          1e-ENERGY        2e-ENERGY     RMS[dD(SAO)]   TOL
  13  -1151.9133632952    -2163.9218715     718.97541236    0.127D-04 0.708D-11
                            Exc = -58.4766734775      Eck =  777.452085840    
                              N = 58.000221435    
                            current damping = 0.200
 
          Norm of current diis error: 0.72011E-03
          max. resid. norm for Fia-block=  6.498D-05 for orbital     28a         
          max. resid. fock norm         =  6.954D-05 for orbital     30a         
          irrep a   : virtual orbitals shifted by    0.01444

 ITERATION  ENERGY          1e-ENERGY        2e-ENERGY     RMS[dD(SAO)]   TOL
  14  -1151.9133635540    -2163.9263502     718.97989084    0.142D-04 0.689D-11
                            Exc = -58.4766134075      Eck =  777.456504249    
                              N = 58.000221631    
                            current damping = 0.250
 
          Norm of current diis error: 0.35495E-03
          max. resid. norm for Fia-block=  9.793D-05 for orbital     28a         
          max. resid. fock norm         =  1.033D-04 for orbital     28a         
          irrep a   : virtual orbitals shifted by    0.01088

 ITERATION  ENERGY          1e-ENERGY        2e-ENERGY     RMS[dD(SAO)]   TOL
  15  -1151.9133637893    -2163.9264757     718.98001609    0.196D-04 0.658D-11
                            Exc = -58.4766266971      Eck =  777.456642791    
                              N = 58.000221845    
                            current damping = 0.100
 
          Norm of current diis error: 0.32675E-03
          max. resid. norm for Fia-block=  3.230D-05 for orbital     28a         
          max. resid. fock norm         =  3.538D-05 for orbital     59a         
          irrep a   : virtual orbitals shifted by    0.02154
          mo-orthogonalization: Cholesky decomposition

 ITERATION  ENERGY          1e-ENERGY        2e-ENERGY     RMS[dD(SAO)]   TOL
  16  -1151.9133638250    -2163.9241823     718.97772265    0.616D-05 0.649D-11
                            Exc = -58.4766283742      Eck =  777.454351028    
                              N = 58.000221880    
                            current damping = 0.150
 
          Norm of current diis error: 0.38949E-03
          max. resid. norm for Fia-block=  4.742D-05 for orbital     28a         
          max. resid. fock norm         =  5.020D-05 for orbital     28a         
          irrep a   : virtual orbitals shifted by    0.01801

 ITERATION  ENERGY          1e-ENERGY        2e-ENERGY     RMS[dD(SAO)]   TOL
  17  -1151.9133639295    -2163.9254706     718.97901080    0.987D-05 0.631D-11
                            Exc = -58.4766263954      Eck =  777.455637192    
                              N = 58.000222026    
                            current damping = 0.200
 
          Norm of current diis error: 0.17291E-03
          max. resid. norm for Fia-block=  5.895D-05 for orbital     28a         
          max. resid. fock norm         =  6.188D-05 for orbital     28a         
          irrep a   : virtual orbitals shifted by    0.01446

 ITERATION  ENERGY          1e-ENERGY        2e-ENERGY     RMS[dD(SAO)]   TOL
  18  -1151.9133640070    -2163.9270875     718.98062765    0.122D-04 0.607D-11
                            Exc = -58.4766030962      Eck =  777.457230749    
                              N = 58.000222161    
                            current damping = 0.050
 
          Norm of current diis error: 0.27290E-03
          max. resid. norm for Fia-block=  1.097D-05 for orbital     26a         
          max. resid. fock norm         =  1.560D-05 for orbital     34a         
          irrep a   : virtual orbitals shifted by    0.02513

 ITERATION  ENERGY          1e-ENERGY        2e-ENERGY     RMS[dD(SAO)]   TOL
  19  -1151.9133640184    -2163.9249095     718.97844969    0.225D-05 0.603D-11
                            Exc = -58.4766338979      Eck =  777.455083590    
                              N = 58.000222168    
                            current damping = 0.100
 
          Norm of current diis error: 0.18311E-03
          max. resid. norm for Fia-block=  2.821D-05 for orbital     28a         
          max. resid. fock norm         =  2.991D-05 for orbital     28a         
          irrep a   : virtual orbitals shifted by    0.02158

 ITERATION  ENERGY          1e-ENERGY        2e-ENERGY     RMS[dD(SAO)]   TOL
  20  -1151.9133640522    -2163.9255253     718.97906541    0.590D-05 0.591D-11
                            Exc = -58.4766197672      Eck =  777.455685174    
                              N = 58.000222251    
                            current damping = 0.150
 
          Norm of current diis error: 0.11303E-03
          max. resid. norm for Fia-block=  3.144D-05 for orbital     28a         
          max. resid. fock norm         =  3.304D-05 for orbital     28a         
          irrep a   : virtual orbitals shifted by    0.01803
          mo-orthogonalization: Cholesky decomposition

 ITERATION  ENERGY          1e-ENERGY        2e-ENERGY     RMS[dD(SAO)]   TOL
  21  -1151.9133640778    -2163.9262773     718.97981738    0.683D-05 0.575D-11
                            Exc = -58.4766206986      Eck =  777.456438077    
                              N = 58.000222335    
                            current damping = 0.050
 
          Norm of current diis error: 0.16096E-03
          max. resid. norm for Fia-block=  1.023D-05 for orbital     28a         
          max. resid. fock norm         =  1.340D-05 for orbital     59a         
          irrep a   : virtual orbitals shifted by    0.02514

 ITERATION  ENERGY          1e-ENERGY        2e-ENERGY     RMS[dD(SAO)]   TOL
  22  -1151.9133640781    -2163.9253983     718.97893842    0.187D-05 0.287D-10
                            Exc = -58.4766222502     Coul =  796.216153651    
                            exK = -18.7605929831    
                              N = 58.000222334    
                            current damping = 0.100
 
          Norm of current diis error: 0.10061E-03
          max. resid. norm for Fia-block=  1.963D-05 for orbital     28a         
          max. resid. fock norm         =  2.078D-05 for orbital     28a         
          irrep a   : virtual orbitals shifted by    0.02158

 ITERATION  ENERGY          1e-ENERGY        2e-ENERGY     RMS[dD(SAO)]   TOL
  23  -1151.9133640916    -2163.9253711     718.97891115    0.411D-05 0.182D-10
                            Exc = -58.4766242074      Eck =  777.455535362    
                              N = 58.000222395    
                            current damping = 0.050
 
          Norm of current diis error: 0.75947E-04
          max. resid. norm for Fia-block=  1.031D-05 for orbital     28a         
          max. resid. fock norm         =  1.187D-05 for orbital     30a         
          irrep a   : virtual orbitals shifted by    0.02515

 ITERATION  ENERGY          1e-ENERGY        2e-ENERGY     RMS[dD(SAO)]   TOL
  24  -1151.9133640962    -2163.9261993     718.97973940    0.242D-05 0.136D-10
                            Exc = -58.4766118305      Eck =  777.456351232    
                              N = 58.000222421    
                            current damping = 0.100
 
          Norm of current diis error: 0.10902E-03
          max. resid. norm for Fia-block=  6.908D-06 for orbital     28a         
          max. resid. fock norm         =  7.537D-06 for orbital     30a         
          irrep a   : virtual orbitals shifted by    0.02159

 ITERATION  ENERGY          1e-ENERGY        2e-ENERGY     RMS[dD(SAO)]   TOL
  25  -1151.9133641008    -2163.9256058     718.97914587    0.152D-05 0.123D-10
                            Exc = -58.4766217302      Eck =  777.455767604    
                              N = 58.000222435    
                            current damping = 0.150
 
          Norm of current diis error: 0.47246E-04
          max. resid. norm for Fia-block=  1.203D-05 for orbital     28a         
          max. resid. fock norm         =  1.256D-05 for orbital     28a         
          irrep a   : virtual orbitals shifted by    0.01802
          mo-orthogonalization: Cholesky decomposition

 ITERATION  ENERGY          1e-ENERGY        2e-ENERGY     RMS[dD(SAO)]   TOL
  26  -1151.9133641055    -2163.9254885     718.97902853    0.248D-05 0.104D-10
                            Exc = -58.4766197293      Eck =  777.455648263    
                              N = 58.000222467    
                            current damping = 0.050
 
          Norm of current diis error: 0.51024E-04
          max. resid. norm for Fia-block=  5.569D-06 for orbital     29a         
          max. resid. fock norm         =  6.296D-06 for orbital     30a         
          irrep a   : virtual orbitals shifted by    0.02516

 ITERATION  ENERGY          1e-ENERGY        2e-ENERGY     RMS[dD(SAO)]   TOL
  27  -1151.9133641066    -2163.9259062     718.97944622    0.130D-05 0.101D-10
                            Exc = -58.4766184098      Eck =  777.456064626    
                              N = 58.000222485    
                            current damping = 0.100
 
          Norm of current diis error: 0.64172E-04
          max. resid. norm for Fia-block=  6.285D-06 for orbital     28a         
          max. resid. fock norm         =  6.406D-06 for orbital     28a         
          irrep a   : virtual orbitals shifted by    0.02159

 ITERATION  ENERGY          1e-ENERGY        2e-ENERGY     RMS[dD(SAO)]   TOL
  28  -1151.9133641080    -2163.9256655     718.97920553    0.118D-05 0.936D-11
                            Exc = -58.4766193084      Eck =  777.455824842    
                              N = 58.000222493    
                            current damping = 0.150
 
          Norm of current diis error: 0.28361E-04
          max. resid. norm for Fia-block=  1.009D-05 for orbital     28a         
          max. resid. fock norm         =  1.058D-05 for orbital     28a         
          irrep a   : virtual orbitals shifted by    0.01803

 ITERATION  ENERGY          1e-ENERGY        2e-ENERGY     RMS[dD(SAO)]   TOL
  29  -1151.9133641105    -2163.9254782     718.97901830    0.212D-05 0.859D-11
                            Exc = -58.4766216873      Eck =  777.455639983    
                              N = 58.000222522    
                            current damping = 0.050
 
          Norm of current diis error: 0.35935E-04
          max. resid. norm for Fia-block=  1.802D-06 for orbital     26a         
          max. resid. fock norm         =  2.512D-06 for orbital     30a         
          irrep a   : virtual orbitals shifted by    0.02516

 ITERATION  ENERGY          1e-ENERGY        2e-ENERGY     RMS[dD(SAO)]   TOL
  30  -1151.9133641101    -2163.9257814     718.97932149    0.429D-06 0.850D-11
                            Exc = -58.4766167301      Eck =  777.455938223    
                              N = 58.000222526    
                            current damping = 0.100
 
          Norm of current diis error: 0.32431E-04
          max. resid. norm for Fia-block=  3.697D-06 for orbital     28a         
          max. resid. fock norm         =  3.878D-06 for orbital     28a         
          irrep a   : virtual orbitals shifted by    0.02159
          mo-orthogonalization: Cholesky decomposition

 End of SCF iterations

   convergence criteria cannot be satisfied within   30 iterations !


                  ------------------------------------------ 
                 |  total energy      =  -1151.91336411015  |
                  ------------------------------------------ 
                 :  kinetic energy    =   1147.95584583813  :
                 :  potential energy  =  -2299.86920994827  :
                 :  virial theorem    =      1.99656439590  :
                 :  wavefunction norm =      1.00000000000  :
                  .......................................... 


 ATTENTION : $energy will not be updated since 
 this calculation did not converge (sob) 

 A POSSIBLE REASON MAY BE THAT ...
 - THE GEOMETRY IS FAR FROM BEING REASONABLE

    irrep                 25a         26a         27a         28a         29a   
 eigenvalues H         -0.34489    -0.32509    -0.31428    -0.19161    -0.18978
            eV          -9.3851     -8.8461     -8.5521     -5.2139     -5.1642
 occupation              2.0000      2.0000      2.0000      2.0000      2.0000 

    irrep                 30a         31a         32a         33a         34a   
 eigenvalues H         -0.11850    -0.09947    -0.09658    -0.06093    -0.02812
            eV          -3.2246     -2.7066     -2.6282     -1.6579     -0.7651
 
 
 
 
 ==============================================================================
                           electrostatic moments
 ==============================================================================

 reference point for electrostatic moments:    0.00000   0.00000   0.00000

 
              nuc           elec       ->  total
 ------------------------------------------------------------------------------
                          charge      
 ------------------------------------------------------------------------------
          58.000000     -58.000000       0.000000
 
 ------------------------------------------------------------------------------
                       dipole moment  
 ------------------------------------------------------------------------------
   x      -0.461533      -0.273566      -0.735099
   y      -1.899016       2.903357       1.004341
   z       2.318550      -3.596303      -1.277753
 
   | dipole moment | =     1.7837 a.u. =     4.5338 debye 
 
 ------------------------------------------------------------------------------
                     quadrupole moment
 ------------------------------------------------------------------------------
  xx     132.421804    -160.269058     -27.847254
  yy     196.264863    -229.634034     -33.369171
  zz     310.706724    -333.547796     -22.841072
  xy     -10.387208      13.823407       3.436199
  xz      15.755502     -15.763458      -0.007956
  yz     -58.282295      60.506878       2.224583
 
     1/3  trace=     -28.019166
     anisotropy=      11.552750
 
 ==============================================================================
 

 ATTENTION: ridft did not converge! 



    ------------------------------------------------------------------------
         total  cpu-time :  26.92 seconds
         total wall-time :  26.98 seconds
    ------------------------------------------------------------------------

   ****  ridft : all done  ****


    2018-03-07 21:06:45.787 


DIRECT SCF FAILED TO CONVERGE => jobex quits

