
OPTIMIZATION CYCLE 9
Tue Jan 23 16:10:22 PST 2018
STARTING rdgrad ON 8 PROCESSORS!
RUNNING PROGRAM /beegfs/modfac/apps/TURBOMOLE/7.2-official/bin/em64t-unknown-linux-gnu_smp/rdgrad_mpi.
PLEASE WAIT UNTIL rdgrad HAS FINISHED.
 c-5-18.local ( 1 ) 
 c-5-18.local ( 2 ) 
 c-5-18.local ( 3 ) 
 c-5-18.local ( 4 ) 
 c-5-18.local ( 5 ) 
 c-5-18.local ( 6 ) 
 c-5-18.local ( 7 ) 
 this is node-proc. number 0 running on node c-5-18.local
 the total number of node-proc. spawned is   8
 GA version: using    8 (total) on    1 nhosts.
 operating system is UNIX !

 rdgrad (c-5-18.local) : TURBOMOLE V7.2 ( 21287 ) 3 Jul 2017 at 09:36:10
 Copyright (C) 2017 TURBOMOLE GmbH, Karlsruhe


    2018-01-23 16:10:23.777 

 ********** GlobalArray OPTION SETTINGS : **********
 *****************************************************

 gradient run will be profiled !


 UHF modus switched on !


                                 r d g r a d

                          gradient for ridft program 

                        by K.Eichkorn, O.Treutler, H.Oehm, 
                             M.Haeser and R.Ahlrichs
                  (Chemical Physics Letters 242 (1995) 652-660)
                    parallel version: M.v.Arnim  &  R.Ahlrichs
                            quantum chemistry group
                             university  karlsruhe
                                   germany




                          References             
                                                 
          Density Functional:                              
              O. Treutler and R. Ahlrichs                      
              Efficient Molecular Numerical Integration Schemes
              J. chem. Phys. 102: 346 (1995)                   
          Parallel Version:                                
              Performance of parallel TURBOMOLE for Density    
              Functional Calculations                          
              M. v.Arnim and R. Ahlrichs                      
              J. comp. Chem. 19: 1746 (1998)                   
          RI-J Method:                                     
              Auxiliary Basis Sets to approximate Coulomb      
              Potentials                                       
              Chem. Phys. Lett. 240: 283 (1995)                
              K. Eichkorn, O. Treutler, H. Oehm, M. Haeser     
              and R. Ahlrichs                                  
              Chem. Phys. Lett. 242: 652 (1995)                
                                                           
              Auxiliary Basis Sets for Main Row Atoms and their
              Use to approximate Coulomb Potentials            
              K. Eichkorn, F. Weigend, O. Treutler and         
              R. Ahlrichs                                      
              Theo. Chem. Acc. 97: 119 (1997)                   
                                         



 integral neglect threshold       :  0.69E-11
 integral storage threshold THIZE :  0.10E-04
 integral storage threshold THIME :         5

 number of unique ecp types :                     1

          ------------------
          -ecp- potential(s)
          ------------------

 center   1  y def2-ecp  (ecp no.  1)  ncore = 28,  lmax = 3

 center  13  y def2-ecp  (ecp no.  2)  ncore = 28,  lmax = 3
  (equal to center   1 y )
 TPSS global hybrid functional
 exchange:    9/10 (LDA+TPSS) + 1/10 HF
 correlation: LDA (PW) + TPSS
 A Hybrid-DFT calculation using the RI-J approximation will be carried out.
  
  
 AUXILIARY BASIS SET information:

 symmetry group of the molecule :   c1 

 the group has the following generators :
   c1(z)

    1 symmetry operations found

 there are 1 real representations :   a   

 maximum number of shells which are related by symmetry :  1


    mo occupation :
   irrep   mo's   occupied
    a      452       83
 
 number of basis functions   :                    452
 number of occupied orbitals :                     83
 

 biggest AO integral is expected to be     3.528781981
  
           ------------------
           density functional
           ------------------
 TPSS global hybrid functional
 exchange:    9/10 (LDA+TPSS) + 1/10 HF
 correlation: LDA (PW) + TPSS

 iterations will be done with small grid
  
 spherical integration : Lebedev's spherical grid
 spherical gridsize    :                     5
    i.e. gridpoints    :                   590
 value for diffuse not defined
 radial integration    : Chebyshev 2nd kind (scaling 3)
 radial gridsize       :                     8
 integration cells     :                    44
 partition function    : becke
 partition sharpness   :                     3
  
  
           ------------------------
             RDGRAD - INFORMATION
           ------------------------
  
 Threshold for integral neglect (rithr1): 1E-10
 Threshold for integral neglect (rithr2): 1E-10
     
 ****************************************
 Local memory allocated for RDGRAD: 4 MiB
 ****************************************
                                            
 PQ decomposition by parallel Cholesky:                  1400  basis functions.

 nuclear repulsion energy  :   1829.69953141    

  MOs are in ASCII format !


 reading orbital data $uhfmo_alpha  from file alpha
 orbital characterization : scfconv=7

 reading orbital data $uhfmo_beta  from file beta
 orbital characterization : scfconv=7

    ----------------------------------------
     S+T+V CONTRIBUTIONS TO ENERGY GRADIENT 
    ----------------------------------------
 ==============================================================================
                      COSMO switched on
 ==============================================================================

 1e-integral 1st. derivatives will be neglected if expon. factor < 0.138904E-13

COSMO: already initialized
 COSMO: using fcos:      0.8148148
  _________________________________
 |                                 |
 |         DFTD3 V3.1 Rev 0        |
 | S.Grimme, University Bonn       |
 |            June  2014           |
 |   see standalone version        |
 |       dftd3 -h for options      |
 |_________________________________|
 
 Please cite DFT-D3 work done with this code as:
 S. Grimme, J. Antony, S. Ehrlich and H. Krieg,
 J. Chem. Phys, 132 (2010), 154104.
 If used with BJ-damping cite also
 S. Grimme, S. Ehrlich and L. Goerigk,
 J. Comput. Chem. 32 (2011), 1456-1465
 For DFT-D2 the reference is
 S. Grimme, J. Comput. Chem., 27 (2006), 1787-1799
 
C6 coefficients used:
                     2  C6 for element                      1
Z=  1 CN= 0.912     C6(AA)=    3.03
Z=  1 CN= 0.000     C6(AA)=    7.59
                     5  C6 for element                      6
Z=  6 CN= 0.000     C6(AA)=   49.11
Z=  6 CN= 0.987     C6(AA)=   43.25
Z=  6 CN= 1.998     C6(AA)=   29.36
Z=  6 CN= 2.999     C6(AA)=   25.78
Z=  6 CN= 3.984     C6(AA)=   18.21
                     3  C6 for element                     39
Z= 39 CN= 0.000     C6(AA)= 2365.89
Z= 39 CN= 1.915     C6(AA)= 1132.30
Z= 39 CN= 2.890     C6(AA)=  451.08

#           XYZ [au]              R0(AA) [Ang.]  CN          C6(AA)     C8(AA)   C10(AA) [au]
  1  -1.03796   0.15504  -3.09167   y   2.110 11.378       451.1     86005.2  20087594.1
  2  -2.08243  -1.10301   0.64549   h   1.091  1.687         3.0        36.6       541.9
  3  -3.24895   3.29452  -6.24502   c   1.455  4.102        18.3       528.1     18711.1
  4  -5.19199   2.53987  -4.54258   c   1.455  4.083        18.3       528.4     18720.0
  5  -4.62568   3.57975  -2.13227   c   1.455  4.068        18.3       528.6     18727.6
  6  -2.33572   4.96240  -2.33373   c   1.455  4.079        18.3       528.4     18721.9
  7  -1.47315   4.78840  -4.87997   c   1.455  4.089        18.3       528.3     18717.0
  8  -0.77931  -4.81802  -3.93962   c   1.455  4.068        18.3       528.6     18727.6
  9   1.72990  -3.90462  -4.19961   c   1.455  4.079        18.3       528.4     18721.8
 10   1.81721  -2.29928  -6.36153   c   1.455  4.088        18.3       528.3     18717.2
 11  -0.65159  -2.23473  -7.43276   c   1.455  4.101        18.3       528.1     18711.4
 12  -2.25766  -3.78444  -5.92874   c   1.455  4.082        18.3       528.4     18720.1
 13   1.05829  -0.18715   3.09140   y   2.110 11.378       451.1     86005.2  20087594.1
 14   2.10307   1.06921  -0.64642   h   1.091  1.687         3.0        36.6       541.9
 15   3.21446  -3.35153   6.25892   c   1.455  4.101        18.3       528.1     18711.2
 16   5.17881  -2.61023   4.57528   c   1.455  4.082        18.3       528.4     18720.0
 17   4.62476  -3.63977   2.15786   c   1.455  4.068        18.3       528.6     18727.4
 18   2.32086  -5.00276   2.33603   c   1.455  4.079        18.3       528.4     18721.5
 19   1.43777  -4.82678   4.87522   c   1.455  4.089        18.3       528.3     18716.9
 20   0.81787   4.79344   3.90673   c   1.455  4.068        18.3       528.6     18727.9
 21  -1.68960   3.88696   4.20229   c   1.455  4.078        18.3       528.4     18722.2
 22  -1.75488   2.29604   6.37547   c   1.455  4.088        18.3       528.3     18717.2
 23   0.72635   2.23372   7.41835   c   1.455  4.101        18.3       528.1     18711.2
 24   2.31776   3.77018   5.88525   c   1.455  4.082        18.3       528.4     18720.0
 25  -1.46768  -6.07837  -2.46232   h   1.091  1.011         3.1        37.3       552.4
 26   3.31906  -4.35785  -2.97601   h   1.091  1.013         3.1        37.3       552.2
 27   3.49173  -1.35194  -7.10256   h   1.091  1.011         3.1        37.3       552.4
 28  -1.20673  -1.21207  -9.13201   h   1.091  1.012         3.1        37.3       552.3
 29   5.76897  -3.40124   0.46118   h   1.091  1.011         3.1        37.3       552.4
 30   6.83098  -1.47637   5.06220   h   1.091  1.011         3.1        37.3       552.4
 31  -3.42255   1.35746   7.14268   h   1.091  1.011         3.1        37.3       552.4
 32   1.49153   6.04176   2.41266   h   1.091  1.011         3.1        37.3       552.4
 33  -3.29192   4.33497   2.99385   h   1.091  1.012         3.1        37.3       552.2
 34   1.29949   1.22224   9.11828   h   1.091  1.012         3.1        37.3       552.3
 35  -6.83869   1.39104  -5.01264   h   1.091  1.011         3.1        37.3       552.4
 36  -1.40156   5.99035  -0.81742   h   1.091  1.013         3.1        37.3       552.2
 37  -3.16146   2.84406  -8.25274   h   1.091  1.012         3.1        37.3       552.3
 38  -5.75227   3.33448  -0.42489   h   1.091  1.011         3.1        37.3       552.4
 39   1.39079  -6.01900   0.80939   h   1.091  1.013         3.1        37.3       552.2
 40   3.11284  -2.90431   8.26673   h   1.091  1.012         3.1        37.3       552.3
 41  -0.25541  -5.72405   5.63587   h   1.091  1.011         3.1        37.3       552.4
 42   4.32636   4.12201   6.19212   h   1.091  1.011         3.1        37.3       552.4
 43   0.20503   5.69929  -5.65757   h   1.091  1.011         3.1        37.3       552.4
 44  -4.26208  -4.13702  -6.26101   h   1.091  1.011         3.1        37.3       552.4

molecular C6(AA) [au] =     27201.31

           DFT-D V3
 DF tpssh                                             
 parameters
 s6       :    1.0000
 s8       :    1.2190
 rs6      :    1.2230
 rs18     :    1.0000
 alpha6   :   14.0000
 alpha8   :   16.0000
 k1-k3    :   16.0000    1.3333   -4.0000
 
 Edisp /kcal,au:   -27.7734 -0.04425980

 E6    /kcal :    -8.5719
 E8    /kcal :   -19.2015
 % E8        : 69.14
 
 doing analytical gradient O(N^2) ...
 
 |G|=  2.341769553209476E-002

 setting up bound for integral derivative estimation

 increment for numerical differentiation : 0.00050000

 biggest AO integral is expected to be     3.528781981
 biggest cartesian 1st derivative AO integral is expected to be     5.507249476

 biggest 1-particle AO density matrix element is expected to be    2.0856744897

 setting up bound for integral derivative estimation

 increment for numerical differentiation : 0.00050000

 biggest AO integral is expected to be     3.528781981
 biggest cartesian 1st derivative AO integral is expected to be     5.507249476

 2e-integral 1st. derivatives will be neglected if expon. factor < 0.100000E-06
 outer boundary for 2e-integral derivative neglection is 0.383138E-08


 performing derivative 2e integral batch statistics 

 #        istart  iend      jstart  jend  cost
     1         1   133         1    32          965452521.00
     2       133   142        33   124          962690994.00
     3       142   151       125    45          963752232.00
     4       151   157        46    74          963339510.00
     5       157   162        75   115          962195511.00
     6       162   174       116   127          964165614.00
     7       174   183       128    29          970079211.00
     8       183   183        30   129          977379360.00
     9       183   183       130   162          688532256.00
    10       183   184       163   123          693405324.00
    11       184   185       124   183          714609402.00
    12       185   188       184    15          687153540.00
    13       188   190        16    23          691216644.00
    14       190   192        24    24          687717792.00
    15       192   193        25   193          687959718.00
    16       194   195         1    45          698564466.00
    17       195   195        46    78          496531944.00
    18       195   195        79   118          492295368.00
    19       195   195       119   139          493741584.00
    20       195   195       140   152          507605256.00
    21       195   195       153   167          505114632.00
    22       195   195       168   189          493303176.00
    23       195   196       190    69          493412862.00
    24       196   196        70   145          498281418.00
    25       196   196       146   183          366363378.00
    26       196   197       184   144          353247732.00
    27       197   198       145   105          350910930.00
    28       198   199       106    48          356924028.00
    29       199   199        49   184          352329786.00
    30       199   200       185   145          354045546.00
    31       200   201       146    68          351093468.00
    32       201   201        69   197          362061492.00
    33       201   202       198   141          254708442.00
    34       202   202       142   195          253422432.00
    35       202   203       196   141          253818852.00
    36       203   203       142   195          258361974.00
    37       203   204       196   152          253307304.00
    38       204   204       153   203          260900424.00
    39       204   205       204   153          252326802.00
    40       205   205       154   205          255128004.00
    41       206   206         1   139          182009256.00
    42       206   206       140   172          179576154.00
    43       206   207       173     6          182596482.00
    44       207   207         7    29          183316610.00
    45       207   207        30    83          183734970.00
    46       207   207        84   118          187349110.00
    47       207   207       119   127          205484220.00
    48       207   207       128   136          186084900.00
    49       207   207       137   147          134061210.00
    50       207   207       148   165          129507780.00
    51       207   207       166   183          144761580.00
    52       207   207       184   190          141988620.00
    53       207   207       191   195          163326600.00
    54       207   208       196    25          130481840.00
    55       208   208        26    54          139294310.00
    56       208   208        55    71          128954370.00
    57       208   208        72    89           98376010.00
    58       208   208        90   107           91487050.00
    59       208   208       108   120           96616080.00
    60       208   208       121   131           93314340.00
    61       208   208       132   142           95310180.00
    62       208   208       143   147          122794020.00
    63       208   208       148   152          102225480.00
    64       208   208       153   157          122907810.00
    65       208   208       158   161           90536910.00
    66       208   208       162   172           73218840.00
    67       208   208       173   183          124753950.00
    68       208   208       184   195          114704820.00
    69       208   208       196   199           82376340.00
    70       208   208       200   203           85782900.00
    71       208   208       204   207           96808760.00
    73       208   208       208   207           29298500.00
 totalcost check=   26270490931.0000      ntasks=                    72

 cpu time for derivative 2e integral statistics :      0.87 sec

 
   end of statistics output by subroutine kunz .
                     ***
 
          Overall gridpoints after grid construction =        676871

 Integrated ground state density     :   164.9999685402439    

 Integrated ground state spin density:  0.9999746182370086    


          ------------------------------------------------
           cartesian gradient of the energy (hartree/bohr)
          ------------------------------------------------

  ATOM      1 y           2 h           3 c           4 c           5 c 
dE/dx -0.3227119D-04  0.1141379D-04 -0.2159301D-04  0.1838371D-06  0.9288860D-05
dE/dy  0.4443771D-04  0.2935839D-04 -0.2200938D-04  0.3168769D-05  0.9020709D-05
dE/dz -0.2413932D-06  0.4817815D-05 -0.5203402D-05  0.3535904D-04  0.5768177D-05

  ATOM      6 c           7 c           8 c           9 c          10 c 
dE/dx -0.2339936D-04  0.2516625D-04  0.2902929D-04  0.3985363D-05  0.4092999D-04
dE/dy -0.7612984D-05  0.7482299D-06 -0.5470644D-05 -0.7524034D-05  0.2280448D-04
dE/dz -0.1630919D-04  0.9892338D-06 -0.8256709D-05 -0.1378691D-04 -0.1156373D-04

  ATOM     11 c          12 c          13 y          14 h          15 c 
dE/dx -0.8269938D-05  0.3016996D-04  0.4831829D-04 -0.7907654D-05  0.7319478D-05
dE/dy -0.6898577D-05 -0.3098525D-04 -0.4682520D-04 -0.3344299D-04  0.1887779D-04
dE/dz -0.2950105D-04  0.1550492D-04 -0.2763712D-05 -0.1520438D-05 -0.1610372D-05

  ATOM     16 c          17 c          18 c          19 c          20 c 
dE/dx -0.1087614D-04 -0.1664788D-04  0.7598967D-05 -0.3548015D-04 -0.2358577D-04
dE/dy -0.1270629D-04 -0.1477837D-04  0.1120154D-05  0.4245153D-05  0.8706219D-05
dE/dz -0.3866127D-04 -0.5395674D-05  0.1949445D-04  0.1619359D-04  0.3082672D-05

  ATOM     21 c          22 c          23 c          24 c          25 h 
dE/dx  0.1003935D-04 -0.4297400D-04  0.8963972D-05 -0.1368002D-04  0.4877749D-05
dE/dy  0.1230108D-04 -0.6889052D-05  0.1460255D-04  0.3028784D-04  0.6197382D-05
dE/dz  0.1442286D-04 -0.1247680D-05  0.2609491D-04 -0.1450276D-04  0.2078209D-05

  ATOM     26 h          27 h          28 h          29 h          30 h 
dE/dx  0.3360951D-05  0.5033672D-05  0.5292979D-05 -0.1770290D-05 -0.8282329D-05
dE/dy  0.1025837D-04 -0.3650888D-05  0.2046085D-05  0.4235661D-05  0.1486182D-04
dE/dz  0.2604543D-05  0.1814495D-05  0.3998610D-05  0.3887922D-05 -0.2613928D-07

  ATOM     31 h          32 h          33 h          34 h          35 h 
dE/dx -0.8780939D-06 -0.4375431D-05 -0.4966186D-05  0.1639857D-05  0.7510830D-05
dE/dy  0.1160877D-05 -0.5256201D-05 -0.1113362D-04  0.3301033D-06 -0.1279327D-04
dE/dz  0.1170936D-05 -0.7879170D-06 -0.5026099D-05 -0.4756134D-05 -0.2585254D-06

  ATOM     36 h          37 h          38 h          39 h          40 h 
dE/dx  0.4039650D-05 -0.4988711D-07  0.1805363D-05 -0.1418126D-05 -0.1363041D-05
dE/dy -0.2923740D-05 -0.7454196D-05 -0.3534429D-05  0.3659480D-05  0.8881844D-05
dE/dz -0.1956382D-05  0.2001156D-05 -0.3875867D-05  0.2366775D-05 -0.2414286D-05

  ATOM     41 h          42 h          43 h          44 h 
dE/dx  0.4397323D-05 -0.3167532D-05 -0.4790119D-05  0.2595329D-05
dE/dy -0.6645055D-05 -0.2416800D-05  0.3658761D-05  0.6094451D-05
dE/dz -0.8867895D-05 -0.9170311D-05  0.3600599D-05  0.8061047D-05
 
 resulting FORCE  (fx,fy,fz) = (0.521D-05,0.101D-04,-.144D-04)
 resulting MOMENT (mx,my,mz) = (-.440D-03,-.494D-03,0.749D-03)


 exx =      -0.000182 eyy =      -0.000051 ezz =      -0.000041
 eyz =       0.000278 exz =      -0.000690 exy =      -0.000155


 **********************************************************************
  |maximum component of gradient| : 0.48318288E-04  (atom 13 y )       
   gradient norm                  : 0.17889666E-03
 **********************************************************************
   ***  cartesian gradients written onto <gradient>  ***


     --- calculation of the energy gradient finished ---


    rdgrad.all profiling
  --------------------------------------------------------------------
             module   cpu total (s)       %  wall total (s)       %

          rdgrad.all            46.2  100.00            44.3  100.00
        rdgrad.input             0.0    0.08             0.0    0.09
           bound.etc             0.0    0.09             0.0    0.09
            dft.prep             0.0    0.03             0.0    0.03
       before.oneder             1.6    3.49             0.3    0.62
        input.oneint             0.0    0.01             0.0    0.01
       input.moinput             0.6    1.39             0.6    1.32
      moinput.orttst             0.1    0.17             0.0    0.05
              oneder             7.3   15.81             6.7   15.22
       rdgrad.twoder             2.7    5.84             2.7    6.10
              lpdrc1             0.6    1.22             0.6    1.27
          DRI-J.near             1.4    3.04             1.4    3.17
      rdgrad.grdfinp            14.5   31.26            14.4   32.65
           dft total            14.4   31.24            14.4   32.62
    xc contributions            14.4   31.24            14.4   32.62
 


    ------------------------------------------------------------------------
         total  cpu-time :  46.46 seconds
         total wall-time :  44.90 seconds
    ------------------------------------------------------------------------

   ****  rdgrad : all done  ****


    2018-01-23 16:11:08.108 

 rdgrad ended normally
fine, there is no data group "$actual step"
next step = relax

 statpt (c-5-18.local) : TURBOMOLE V7.2 ( 21287 ) 3 Jul 2017 at 09:33:16
 Copyright (C) 2017 TURBOMOLE GmbH, Karlsruhe


    2018-01-23 16:11:09.193 



                           this is S T A T P T   


                     hessian and coordinate update for
                          stationary point search 

                     by barbara unterreiner, marek sierka,
                           and reinhart ahlrichs

                          quantum chemistry group
                          universitaet  karlsruhe
                                  germany




              +--------------------------------------------------+
              | Atomic coordinate, charge and isotop information |
              +--------------------------------------------------+

                    atomic coordinates            atom    charge  isotop
         -1.03795741    0.15503949   -3.09167338    y     39.000     0
         -2.08242845   -1.10301203    0.64549341    h      1.000     0
         -3.24894724    3.29452166   -6.24501793    c      6.000     0
         -5.19198845    2.53987316   -4.54257539    c      6.000     0
         -4.62567555    3.57974947   -2.13226756    c      6.000     0
         -2.33572374    4.96240485   -2.33372568    c      6.000     0
         -1.47314976    4.78840065   -4.87996822    c      6.000     0
         -0.77930835   -4.81802207   -3.93962399    c      6.000     0
          1.72989748   -3.90461868   -4.19961023    c      6.000     0
          1.81721270   -2.29927716   -6.36152605    c      6.000     0
         -0.65158994   -2.23472740   -7.43276184    c      6.000     0
         -2.25765809   -3.78443771   -5.92874243    c      6.000     0
          1.05828636   -0.18714587    3.09140319    y     39.000     0
          2.10306790    1.06920863   -0.64641873    h      1.000     0
          3.21446146   -3.35152699    6.25891770    c      6.000     0
          5.17880720   -2.61023385    4.57527695    c      6.000     0
          4.62475880   -3.63976924    2.15786190    c      6.000     0
          2.32086303   -5.00275618    2.33602565    c      6.000     0
          1.43776787   -4.82677563    4.87522014    c      6.000     0
          0.81787075    4.79343509    3.90672920    c      6.000     0
         -1.68959876    3.88695676    4.20228758    c      6.000     0
         -1.75487766    2.29603657    6.37546539    c      6.000     0
          0.72634831    2.23372203    7.41835158    c      6.000     0
          2.31775765    3.77018063    5.88525182    c      6.000     0
         -1.46767616   -6.07837159   -2.46232330    h      1.000     0
          3.31906484   -4.35784972   -2.97601396    h      1.000     0
          3.49172997   -1.35193718   -7.10255841    h      1.000     0
         -1.20673163   -1.21206887   -9.13201317    h      1.000     0
          5.76897035   -3.40124303    0.46118282    h      1.000     0
          6.83097554   -1.47637444    5.06219944    h      1.000     0
         -3.42255343    1.35745795    7.14267857    h      1.000     0
          1.49152819    6.04176360    2.41266369    h      1.000     0
         -3.29192181    4.33497343    2.99385355    h      1.000     0
          1.29948880    1.22224192    9.11828109    h      1.000     0
         -6.83868974    1.39104189   -5.01264179    h      1.000     0
         -1.40156215    5.99035355   -0.81741709    h      1.000     0
         -3.16146054    2.84406373   -8.25273841    h      1.000     0
         -5.75227457    3.33447744   -0.42489056    h      1.000     0
          1.39078713   -6.01900370    0.80938677    h      1.000     0
          3.11283884   -2.90430931    8.26672556    h      1.000     0
         -0.25540532   -5.72404701    5.63587343    h      1.000     0
          4.32635609    4.12200998    6.19212015    h      1.000     0
          0.20503481    5.69929337   -5.65757219    h      1.000     0
         -4.26208311   -4.13701933   -6.26101453    h      1.000     0
 
       center of nuclear mass  :    0.00939255   -0.01622331   -0.00018726
       center of nuclear charge:    0.00933296   -0.01623493   -0.00019213
  Keyword $statpt not found - using default options
 
        ***************  Stationary point options ******************
        ************************************************************
           Maximum allowed trust radius:           3.000000E-01
           Minimum allowed trust radius:           1.000000E-03
           Initial trust radius:                   1.500000E-01
           GDIIS used if gradient norm <           1.000000E-02
           Number of previous steps for GDIIS:       5
           Hessian update method:                  BFGS
                        *** Convergence criteria ***                
           Threshold for energy change:            1.000000E-06
           Threshold for max displacement element: 1.000000E-03
           Threshold for max gradient element :    1.000000E-03
           Threshold for RMS of displacement:      5.000000E-04
           Threshold for RMS of gradient:          5.000000E-04
        ************************************************************
 

 keyword $statp missing in file <control>

  Keyword $statpt not found - using default options
  actual coordinates :
        -1.037957409449         0.155039488913        -3.091673376054
        -2.082428445813        -1.103012033048         0.645493407189
        -3.248947241046         3.294521662987        -6.245017934340
        -5.191988450716         2.539873164450        -4.542575392210
        -4.625675545858         3.579749466799        -2.132267564710
        -2.335723742227         4.962404846028        -2.333725676740
        -1.473149762216         4.788400645978        -4.879968223477
        -0.779308354016        -4.818022067675        -3.939623992453
         1.729897475697        -3.904618681604        -4.199610234029
         1.817212702077        -2.299277155739        -6.361526047713
        -0.651589937486        -2.234727398212        -7.432761837834
        -2.257658086649        -3.784437705279        -5.928742429498
         1.058286364205        -0.187145866432         3.091403187179
         2.103067902813         1.069208629139        -0.646418728915
         3.214461456966        -3.351526994942         6.258917701315
         5.178807203786        -2.610233845269         4.575276945382
         4.624758798514        -3.639769243673         2.157861901715
         2.320863032568        -5.002756183998         2.336025645414
         1.437767868282        -4.826775632605         4.875220140386
         0.817870750132         4.793435090095         3.906729196106
        -1.689598759138         3.886956756060         4.202287579438
        -1.754877659749         2.296036568301         6.375465388069
         0.726348307056         2.233722032909         7.418351581169
         2.317757654177         3.770180633256         5.885251819093
        -1.467676162616        -6.078371588101        -2.462323299070
         3.319064844310        -4.357849715488        -2.976013959403
         3.491729970615        -1.351937183298        -7.102558410881
        -1.206731631974        -1.212068869791        -9.132013172224
         5.768970348541        -3.401243027451         0.461182817881
         6.830975544552        -1.476374442096         5.062199444056
        -3.422553428443         1.357457946239         7.142678569742
         1.491528193304         6.041763604115         2.412663689039
        -3.291921813177         4.334973426644         2.993853548462
         1.299488797522         1.222241919371         9.118281092167
        -6.838689739377         1.391041890187        -5.012641794219
        -1.401562151493         5.990353554507        -0.817417086460
        -3.161460539772         2.844063727868        -8.252738413996
        -5.752274572664         3.334477441956        -0.424890563047
         1.390787131174        -6.019003700324         0.809386774885
         3.112838843048        -2.904309310080         8.266725561439
        -0.255405320547        -5.724047008758         5.635873430358
         4.326356094138         4.122009978610         6.192120152687
         0.205034812243         5.699293366629        -5.657572186753
        -4.262083108172        -4.137019329957        -6.261014533327
  actual gradients :
        -0.000032271185         0.000044437713        -0.000000241393
         0.000011413787         0.000029358389         0.000004817815
        -0.000021593012        -0.000022009382        -0.000005203402
         0.000000183837         0.000003168769         0.000035359035
         0.000009288860         0.000009020709         0.000005768177
        -0.000023399360        -0.000007612984        -0.000016309190
         0.000025166249         0.000000748230         0.000000989234
         0.000029029292        -0.000005470644        -0.000008256709
         0.000003985363        -0.000007524034        -0.000013786908
         0.000040929993         0.000022804479        -0.000011563728
        -0.000008269938        -0.000006898577        -0.000029501048
         0.000030169960        -0.000030985248         0.000015504918
         0.000048318288        -0.000046825200        -0.000002763712
        -0.000007907654        -0.000033442989        -0.000001520438
         0.000007319478         0.000018877786        -0.000001610372
        -0.000010876139        -0.000012706290        -0.000038661274
        -0.000016647879        -0.000014778369        -0.000005395674
         0.000007598967         0.000001120154         0.000019494447
        -0.000035480151         0.000004245153         0.000016193588
        -0.000023585768         0.000008706219         0.000003082672
         0.000010039346         0.000012301084         0.000014422855
        -0.000042974001        -0.000006889052        -0.000001247680
         0.000008963972         0.000014602553         0.000026094912
        -0.000013680024         0.000030287837        -0.000014502760
         0.000004877749         0.000006197382         0.000002078209
         0.000003360951         0.000010258372         0.000002604543
         0.000005033672        -0.000003650888         0.000001814495
         0.000005292979         0.000002046085         0.000003998610
        -0.000001770290         0.000004235661         0.000003887922
        -0.000008282329         0.000014861824        -0.000000026139
        -0.000000878094         0.000001160877         0.000001170936
        -0.000004375431        -0.000005256201        -0.000000787917
        -0.000004966186        -0.000011133618        -0.000005026099
         0.000001639857         0.000000330103        -0.000004756134
         0.000007510830        -0.000012793272        -0.000000258525
         0.000004039650        -0.000002923740        -0.000001956382
        -0.000000049887        -0.000007454196         0.000002001156
         0.000001805363        -0.000003534429        -0.000003875867
        -0.000001418126         0.000003659480         0.000002366775
        -0.000001363041         0.000008881844        -0.000002414286
         0.000004397323        -0.000006645055        -0.000008867895
        -0.000003167532        -0.000002416800        -0.000009170311
        -0.000004790119         0.000003658761         0.000003600599
         0.000002595329         0.000006094451         0.000008061047
     Number of symmetry restricted degrees of freedom:   132
     Constituted by:     3 translational degrees of freedom
                         3 rotational degrees of freedom
                     126 internal degrees of freedom

  *************************************************************************
   ATOM                      CARTESIAN COORDINATES
    1 y      -1.03795740944926      0.15503948891258     -3.09167337605355
    2 h      -2.08242844581281     -1.10301203304771      0.64549340718913
    3 c      -3.24894724104606      3.29452166298730     -6.24501793433982
    4 c      -5.19198845071642      2.53987316445034     -4.54257539221001
    5 c      -4.62567554585815      3.57974946679867     -2.13226756471022
    6 c      -2.33572374222675      4.96240484602767     -2.33372567673964
    7 c      -1.47314976221650      4.78840064597757     -4.87996822347717
    8 c      -0.77930835401580     -4.81802206767496     -3.93962399245341
    9 c       1.72989747569743     -3.90461868160403     -4.19961023402909
   10 c       1.81721270207678     -2.29927715573904     -6.36152604771262
   11 c      -0.65158993748560     -2.23472739821226     -7.43276183783364
   12 c      -2.25765808664914     -3.78443770527924     -5.92874242949803
   13 y       1.05828636420527     -0.18714586643243      3.09140318717917
   14 h       2.10306790281255      1.06920862913894     -0.64641872891481
   15 c       3.21446145696583     -3.35152699494230      6.25891770131490
   16 c       5.17880720378562     -2.61023384526874      4.57527694538227
   17 c       4.62475879851374     -3.63976924367267      2.15786190171458
   18 c       2.32086303256848     -5.00275618399843      2.33602564541425
   19 c       1.43776786828175     -4.82677563260546      4.87522014038641
   20 c       0.81787075013161      4.79343509009497      3.90672919610634
   21 c      -1.68959875913752      3.88695675606018      4.20228757943810
   22 c      -1.75487765974881      2.29603656830117      6.37546538806870
   23 c       0.72634830705591      2.23372203290919      7.41835158116850
   24 c       2.31775765417688      3.77018063325632      5.88525181909260
   25 h      -1.46767616261573     -6.07837158810078     -2.46232329907009
   26 h       3.31906484431049     -4.35784971548823     -2.97601395940296
   27 h       3.49172997061489     -1.35193718329819     -7.10255841088058
   28 h      -1.20673163197387     -1.21206886979146     -9.13201317222419
   29 h       5.76897034854105     -3.40124302745068      0.46118281788123
   30 h       6.83097554455210     -1.47637444209585      5.06219944405578
   31 h      -3.42255342844330      1.35745794623851      7.14267856974230
   32 h       1.49152819330424      6.04176360411450      2.41266368903890
   33 h      -3.29192181317654      4.33497342664359      2.99385354846216
   34 h       1.29948879752199      1.22224191937092      9.11828109216743
   35 h      -6.83868973937658      1.39104189018671     -5.01264179421876
   36 h      -1.40156215149322      5.99035355450743     -0.81741708646004
   37 h      -3.16146053977166      2.84406372786827     -8.25273841399637
   38 h      -5.75227457266382      3.33447744195638     -0.42489056304727
   39 h       1.39078713117427     -6.01900370032448      0.80938677488523
   40 h       3.11283884304765     -2.90430931008031      8.26672556143883
   41 h      -0.25540532054661     -5.72404700875827      5.63587343035829
   42 h       4.32635609413794      4.12200997860999      6.19212015268740
   43 h       0.20503481224325      5.69929336662899     -5.65757218675311
   44 h      -4.26208310817165     -4.13701932995666     -6.26101453332689
  *************************************************************************
   ATOM                      CARTESIAN GRADIENTS  
    1 y      -0.00003227118502      0.00004443771281     -0.00000024139319
    2 h       0.00001141378721      0.00002935838863      0.00000481781540
    3 c      -0.00002159301159     -0.00002200938168     -0.00000520340203
    4 c       0.00000018383714      0.00000316876924      0.00003535903507
    5 c       0.00000928885955      0.00000902070949      0.00000576817747
    6 c      -0.00002339936010     -0.00000761298373     -0.00001630918992
    7 c       0.00002516624868      0.00000074822992      0.00000098923377
    8 c       0.00002902929172     -0.00000547064415     -0.00000825670868
    9 c       0.00000398536346     -0.00000752403393     -0.00001378690831
   10 c       0.00004092999328      0.00002280447929     -0.00001156372771
   11 c      -0.00000826993788     -0.00000689857726     -0.00002950104754
   12 c       0.00003016995971     -0.00003098524773      0.00001550491789
   13 y       0.00004831828784     -0.00004682520034     -0.00000276371218
   14 h      -0.00000790765419     -0.00003344298926     -0.00000152043794
   15 c       0.00000731947751      0.00001887778564     -0.00000161037196
   16 c      -0.00001087613881     -0.00001270629035     -0.00003866127442
   17 c      -0.00001664787871     -0.00001477836878     -0.00000539567375
   18 c       0.00000759896677      0.00000112015394      0.00001949444668
   19 c      -0.00003548015056      0.00000424515330      0.00001619358769
   20 c      -0.00002358576833      0.00000870621878      0.00000308267223
   21 c       0.00001003934580      0.00001230108412      0.00001442285535
   22 c      -0.00004297400088     -0.00000688905233     -0.00000124768042
   23 c       0.00000896397167      0.00001460255299      0.00002609491219
   24 c      -0.00001368002373      0.00003028783689     -0.00001450276044
   25 h       0.00000487774886      0.00000619738167      0.00000207820892
   26 h       0.00000336095106      0.00001025837213      0.00000260454250
   27 h       0.00000503367228     -0.00000365088789      0.00000181449531
   28 h       0.00000529297899      0.00000204608513      0.00000399861011
   29 h      -0.00000177028987      0.00000423566136      0.00000388792222
   30 h      -0.00000828232932      0.00001486182368     -0.00000002613928
   31 h      -0.00000087809391      0.00000116087716      0.00000117093580
   32 h      -0.00000437543093     -0.00000525620142     -0.00000078791698
   33 h      -0.00000496618567     -0.00001113361805     -0.00000502609907
   34 h       0.00000163985748      0.00000033010330     -0.00000475613396
   35 h       0.00000751083012     -0.00001279327167     -0.00000025852536
   36 h       0.00000403964951     -0.00000292373951     -0.00000195638221
   37 h      -0.00000004988711     -0.00000745419573      0.00000200115642
   38 h       0.00000180536328     -0.00000353442927     -0.00000387586686
   39 h      -0.00000141812639      0.00000365947987      0.00000236677453
   40 h      -0.00000136304121      0.00000888184388     -0.00000241428563
   41 h       0.00000439732326     -0.00000664505481     -0.00000886789507
   42 h      -0.00000316753223     -0.00000241680005     -0.00000917031120
   43 h      -0.00000479011901      0.00000365876074      0.00000360059906
   44 h       0.00000259532932      0.00000609445067      0.00000806104721
  *************************************************************************

  norm of actual CARTESIAN gradient:  1.78897E-04
  norm of actual INTERNAL  gradient:  1.85392E-04

  ENERGY =    -851.8298246403 a.u.; # of cycle =    9

  Approximate Hessian read from $hessapprox data section

  Hessian updated according to BFGS formula
  Number of zero Hessian eigenvalues:   0
  Number of structures for GDIIS interpolation:    5
  GDIIS step:     0.001363

  Transforming internal coordinate displacements to Cartesian space
      Iteration   1 residual norm     1.362991E-03
      Iteration   2 residual norm     7.458203E-07
      Iteration   3 residual norm     1.770871E-14
      Transformation converged
      Residual norm:    1.770871E-14 after    3 iterations

      ****************************************************************** 
                          CONVERGENCE INFORMATION

                               Converged?     Value      Criterion
             Energy change         yes      0.0000001   0.0000010
             RMS of displacement   yes      0.0001214   0.0005000
             RMS of gradient       yes      0.0000165   0.0005000
             MAX displacement      yes      0.0009942   0.0010000
             MAX gradient          yes      0.0001401   0.0010000
      ****************************************************************** 


    ------------------------------------------------------------------------
         total  cpu-time :   0.34 seconds
         total wall-time :   0.35 seconds
    ------------------------------------------------------------------------

   ****  statpt : all done  ****


    2018-01-23 16:11:09.528 

fine, there is no data group "$actual step"
next step = ridft
STARTING ridft ON 8 PROCESSORS!
RUNNING PROGRAM /beegfs/modfac/apps/TURBOMOLE/7.2-official/bin/em64t-unknown-linux-gnu_smp/ridft_mpi.
PLEASE WAIT UNTIL ridft HAS FINISHED.
 c-5-18.local ( 1 ) 
 c-5-18.local ( 2 ) 
 c-5-18.local ( 3 ) 
 c-5-18.local ( 4 ) 
 c-5-18.local ( 5 ) 
 c-5-18.local ( 6 ) 
 c-5-18.local ( 7 ) 
 this is node-proc. number 0 running on node c-5-18.local
 the total number of node-proc. spawned is   8
 GA version: using    8 (total) on    1 nhosts.
 operating system is UNIX !

 ridft (c-5-18.local) : TURBOMOLE V7.2 ( 21285 ) 30 Jun 2017 at 12:03:23
 Copyright (C) 2017 TURBOMOLE GmbH, Karlsruhe


    2018-01-23 16:11:10.771 



                                  r i d f t

                        DFT program with RI approximation 
                                for coulomb part 




                                                 
                                 References:     
                                                 
          TURBOMOLE:                             
              R. Ahlrichs, M. Baer, M. Haeser, H. Horn, and
              C. Koelmel
              Electronic structure calculations on workstation
              computers: the program system TURBOMOLE
              Chem. Phys. Lett. 162: 165 (1989)
          Density Functional:                              
              O. Treutler and R. Ahlrichs                      
              Efficient Molecular Numerical Integration Schemes
              J. Chem. Phys. 102: 346 (1995)                   
          Parallel Version:                                
              Performance of parallel TURBOMOLE for Density    
              Functional Calculations                          
              M. v. Arnim and R. Ahlrichs                      
              J. Comp. Chem. 19: 1746 (1998)                   
          RI-J Method:                                     
              Auxiliary Basis Sets to approximate Coulomb      
              Potentials                                       
              Chem. Phys. Lett. 240: 283 (1995)                
              K. Eichkorn, O. Treutler, H. Oehm, M. Haeser     
              and R. Ahlrichs                                  
              Chem. Phys. Lett. 242: 652 (1995)                
                                                           
              Auxiliary Basis Sets for Main Row Atoms and their
              Use to approximate Coulomb Potentials            
              K. Eichkorn, F. Weigend, O. Treutler and         
              R. Ahlrichs                                      
              Theo. Chem. Acc. 97: 119 (1997)                   
                                                           
              Accurate Coulomb-fitting basis sets for H to Rn 
              F. Weigend                                        
              Phys. Chem. Chem. Phys. 8: 1057 (2006)            
                                                           
          Multipole accelerated RI-J (MARI-J):             
              Fast evaluation of the Coulomb potential for     
              electron densities using multipole accelerated   
              resolution of identity approximation             
              M. Sierka, A. Hogekamp and R. Ahlrichs           
              J. Chem. Phys. 118: 9136 (2003)                  
          RI-JK Method:                                     
              A fully direct RI-HF algorithm: Implementation,
              optimised auxiliary basis sets, demonstration of
              accuracy and efficiency                         
              F. Weigend                                      
              Phys. Chem. Chem. Phys. 4: 4285 (2002)           
          Two-component HF and DFT with spin-orbit coupling:  
              Self-consistent treatment of spin-orbit         
              interactions with efficient Hartree-Fock and    
              density functional methods                      
              M. K. Armbruster, F. Weigend, C. van Wüllen and 
              W. Klopper                                      
              Phys. Chem. Chem. Phys. 10: 1748 (2008)         
          Relativistic all-electron 2c calculations           
              An efficient implementation of two-component    
              relativistic exact-decoupling methods for large 
              molecules                                       
              D. Peng, N. Middendorf, F. Weigend, M. Reiher   
              J. Chem. Phys. 138, 184105 (2013)               
                                         


 ********** GlobalArray OPTION SETTINGS : **********
 *****************************************************


              +--------------------------------------------------+
              |      general information about current run       |
              +--------------------------------------------------+

 

 SCF run will be profiled !


 UHF modus switched on !
 TPSS global hybrid functional
 exchange:    9/10 (LDA+TPSS) + 1/10 HF
 correlation: LDA (PW) + TPSS
 A Hybrid-DFT calculation using the RI-J approximation will be carried out.
 Allocatable memory for RI due to $ricore (MB):                 10000


              +--------------------------------------------------+
              | Atomic coordinate, charge and isotop information |
              +--------------------------------------------------+

                    atomic coordinates            atom    charge  isotop
         -1.03886580    0.15469091   -3.09137050    y     39.000     0
         -2.08218693   -1.10308175    0.64615950    h      1.000     0
         -3.24888916    3.29447643   -6.24509899    c      6.000     0
         -5.19237558    2.53991985   -4.54317284    c      6.000     0
         -4.62647310    3.57961900   -2.13265504    c      6.000     0
         -2.33631640    4.96211351   -2.33354124    c      6.000     0
         -1.47327626    4.78811196   -4.87962028    c      6.000     0
         -0.78014933   -4.81819202   -3.93973519    c      6.000     0
          1.72915200   -3.90477484   -4.19911455    c      6.000     0
          1.81687914   -2.29925632   -6.36085470    c      6.000     0
         -0.65165849   -2.23458375   -7.43258367    c      6.000     0
         -2.25808192   -3.78441350   -5.92910950    c      6.000     0
          1.05911397   -0.18682364    3.09112103    y     39.000     0
          2.10269843    1.06932471   -0.64706395    h      1.000     0
          3.21454813   -3.35144472    6.25895833    c      6.000     0
          5.17925786   -2.61015537    4.57579143    c      6.000     0
          4.62559815   -3.63953419    2.15817877    c      6.000     0
          2.32156113   -5.00242833    2.33580934    c      6.000     0
          1.43805039   -4.82648504    4.87485222    c      6.000     0
          0.81853508    4.79357123    3.90685396    c      6.000     0
         -1.68901092    3.88702278    4.20191072    c      6.000     0
         -1.75456277    2.29591094    6.37492435    c      6.000     0
          0.72644881    2.23353736    7.41819566    c      6.000     0
          2.31811370    3.77014698    5.88556727    c      6.000     0
         -1.46887814   -6.07862642   -2.46264778    h      1.000     0
          3.31798957   -4.35803778   -2.97510180    h      1.000     0
          3.49144737   -1.35145449   -7.10119029    h      1.000     0
         -1.20644188   -1.21175870   -9.13185649    h      1.000     0
          5.77017461   -3.40095090    0.46173014    h      1.000     0
          6.83143906   -1.47649232    5.06312518    h      1.000     0
         -3.42227566    1.35686988    7.14149709    h      1.000     0
          1.49245830    6.04198589    2.41295601    h      1.000     0
         -3.29108786    4.33512059    2.99319134    h      1.000     0
          1.29928544    1.22182727    9.11809959    h      1.000     0
         -6.83910646    1.39131513   -5.01368016    h      1.000     0
         -1.40244630    5.98989363   -0.81695044    h      1.000     0
         -3.16089048    2.84398202   -8.25279661    h      1.000     0
         -5.75350373    3.33436329   -0.42554060    h      1.000     0
          1.39174220   -6.01848465    0.80889365    h      1.000     0
          3.11249196   -2.90426733    8.26676183    h      1.000     0
         -0.25554473   -5.72330519    5.63511550    h      1.000     0
          4.32665308    4.12194847    6.19285920    h      1.000     0
          0.20539739    5.69850774   -5.65676247    h      1.000     0
         -4.26240165   -4.13702949   -6.26195032    h      1.000     0
 
       center of nuclear mass  :    0.00937949   -0.01622792   -0.00018343
       center of nuclear charge:    0.00932180   -0.01623889   -0.00018884

              +--------------------------------------------------+
              |               basis set information              |
              +--------------------------------------------------+

              we will work with the 1s 3p 5d 7f 9g ... basis set
              ...i.e. with spherical basis functions...

   type   atoms  prim   cont   basis
   ---------------------------------------------------------------------------
    y        2     57     31   def2-SVP   [5s3p2d1f|7s6p5d1f]
    h       22      7      5   def2-SVP   [2s1p|4s1p]
    c       20     24     14   def2-SVP   [3s2p1d|7s4p1d]
   ---------------------------------------------------------------------------
   total:   44    748    452
   ---------------------------------------------------------------------------

   total number of primitive shells          :   36
   total number of contracted shells         :  208
   total number of cartesian basis functions :  482
   total number of SCF-basis functions       :  452


 integral neglect threshold       :  0.69E-11
 integral storage threshold THIZE :  0.10E-04
 integral storage threshold THIME :         5

 number of unique ecp types :                     1
 RI-J AUXILIARY BASIS SET information:

              we will work with the 1s 3p 5d 7f 9g ... basis set
              ...i.e. with spherical basis functions...

   type   atoms  prim   cont   basis
   ---------------------------------------------------------------------------
    y        2     99     89   def2-SVP   [8s5p5d2f3g|11s5p5d3f3g]
    h       22     16     11   def2-SVP   [3s1p1d|5s2p1d]
    c       20     70     49   def2-SVP   [6s4p3d1f1g|12s5p4d2f1g]
   ---------------------------------------------------------------------------
   total:   44   1950   1400
   ---------------------------------------------------------------------------

   total number of primitive shells          :   59
   total number of contracted shells         :  456
   total number of cartesian basis functions : 1720
   total number of SCF-basis functions       : 1400


 symmetry group of the molecule :   c1 

 the group has the following generators :
   c1(z)

    1 symmetry operations found

 there are 1 real representations :   a   

 maximum number of shells which are related by symmetry :  1

 ==============================================================================
                      COSMO switched on
 ==============================================================================
 COSMO stati: segments per atom: H   32 other atoms   92
 COSMO statistics: nps   1414 npspher:    547
 COSMO surface:
   number of segments: 1414
   area (bohr**2):     1177.731457
   volume (bohr**3):   2896.570661
 COSMO: check number of disjunct cavities:

       ... OK contiguous cavity found

    mo occupation :
   irrep   mo's   occupied
    a      452       83
 
 number of basis functions   :                    452
 number of occupied orbitals :                     83
 
  
           ------------------
           density functional
           ------------------
 TPSS global hybrid functional
 exchange:    9/10 (LDA+TPSS) + 1/10 HF
 correlation: LDA (PW) + TPSS

 iterations will be done with small grid
  
 spherical integration : Lebedev's spherical grid
 spherical gridsize    :                     5
    i.e. gridpoints    :                   590
 value for diffuse not defined
 radial integration    : Chebyshev 2nd kind (scaling 3)
 radial gridsize       :                     8
 integration cells     :                    44
 partition function    : becke
 partition sharpness   :                     3
  

 biggest AO integral is expected to be     3.528781981
  
           ------------------------
               RI-J - INFORMATION
           ------------------------
 Memory core needed for (P|Q) and Cholesky      8 MByte on GA
 Memory core minimum needed except           1 MByte 
  
 ****************************************
 Memory allocated for RI-J 1 MByte
 plus additional 8 MByte (pqmatrix)  (GA)
 ****************************************
                                            
allocating par_xzuhag(  186.63 MB)

          ------------------------
          nuclear repulsion energy  :   1829.70512112    
          ------------------------

  _________________________________
 |                                 |
 |         DFTD3 V3.1 Rev 0        |
 | S.Grimme, University Bonn       |
 |            June  2014           |
 |   see standalone version        |
 |       dftd3 -h for options      |
 |_________________________________|
 
 Please cite DFT-D3 work done with this code as:
 S. Grimme, J. Antony, S. Ehrlich and H. Krieg,
 J. Chem. Phys, 132 (2010), 154104.
 If used with BJ-damping cite also
 S. Grimme, S. Ehrlich and L. Goerigk,
 J. Comput. Chem. 32 (2011), 1456-1465
 For DFT-D2 the reference is
 S. Grimme, J. Comput. Chem., 27 (2006), 1787-1799
 
C6 coefficients used:
                     2  C6 for element                      1
Z=  1 CN= 0.912     C6(AA)=    3.03
Z=  1 CN= 0.000     C6(AA)=    7.59
                     5  C6 for element                      6
Z=  6 CN= 0.000     C6(AA)=   49.11
Z=  6 CN= 0.987     C6(AA)=   43.25
Z=  6 CN= 1.998     C6(AA)=   29.36
Z=  6 CN= 2.999     C6(AA)=   25.78
Z=  6 CN= 3.984     C6(AA)=   18.21
                     3  C6 for element                     39
Z= 39 CN= 0.000     C6(AA)= 2365.89
Z= 39 CN= 1.915     C6(AA)= 1132.30
Z= 39 CN= 2.890     C6(AA)=  451.08

#           XYZ [au]              R0(AA) [Ang.]  CN          C6(AA)     C8(AA)   C10(AA) [au]
  1  -1.03887   0.15469  -3.09137   y   2.110 11.378       451.1     86005.2  20087594.1
  2  -2.08219  -1.10308   0.64616   h   1.091  1.687         3.0        36.6       541.9
  3  -3.24889   3.29448  -6.24510   c   1.455  4.102        18.3       528.1     18711.1
  4  -5.19238   2.53992  -4.54317   c   1.455  4.083        18.3       528.4     18720.0
  5  -4.62647   3.57962  -2.13266   c   1.455  4.068        18.3       528.6     18727.6
  6  -2.33632   4.96211  -2.33354   c   1.455  4.079        18.3       528.4     18721.9
  7  -1.47328   4.78811  -4.87962   c   1.455  4.089        18.3       528.3     18717.0
  8  -0.78015  -4.81819  -3.93974   c   1.455  4.068        18.3       528.6     18727.6
  9   1.72915  -3.90477  -4.19911   c   1.455  4.079        18.3       528.4     18721.8
 10   1.81688  -2.29926  -6.36085   c   1.455  4.088        18.3       528.3     18717.2
 11  -0.65166  -2.23458  -7.43258   c   1.455  4.101        18.3       528.1     18711.3
 12  -2.25808  -3.78441  -5.92911   c   1.455  4.082        18.3       528.4     18720.0
 13   1.05911  -0.18682   3.09112   y   2.110 11.378       451.1     86005.2  20087594.1
 14   2.10270   1.06932  -0.64706   h   1.091  1.687         3.0        36.6       541.9
 15   3.21455  -3.35144   6.25896   c   1.455  4.101        18.3       528.1     18711.2
 16   5.17926  -2.61016   4.57579   c   1.455  4.082        18.3       528.4     18720.0
 17   4.62560  -3.63953   2.15818   c   1.455  4.069        18.3       528.6     18727.4
 18   2.32156  -5.00243   2.33581   c   1.455  4.079        18.3       528.4     18721.5
 19   1.43805  -4.82649   4.87485   c   1.455  4.089        18.3       528.3     18716.9
 20   0.81854   4.79357   3.90685   c   1.455  4.068        18.3       528.6     18727.8
 21  -1.68901   3.88702   4.20191   c   1.455  4.078        18.3       528.4     18722.2
 22  -1.75456   2.29591   6.37492   c   1.455  4.088        18.3       528.3     18717.2
 23   0.72645   2.23354   7.41820   c   1.455  4.101        18.3       528.1     18711.1
 24   2.31811   3.77015   5.88557   c   1.455  4.082        18.3       528.4     18720.0
 25  -1.46888  -6.07863  -2.46265   h   1.091  1.011         3.1        37.3       552.4
 26   3.31799  -4.35804  -2.97510   h   1.091  1.013         3.1        37.3       552.2
 27   3.49145  -1.35145  -7.10119   h   1.091  1.011         3.1        37.3       552.4
 28  -1.20644  -1.21176  -9.13186   h   1.091  1.012         3.1        37.3       552.3
 29   5.77017  -3.40095   0.46173   h   1.091  1.011         3.1        37.3       552.4
 30   6.83144  -1.47649   5.06313   h   1.091  1.011         3.1        37.3       552.4
 31  -3.42228   1.35687   7.14150   h   1.091  1.011         3.1        37.3       552.4
 32   1.49246   6.04199   2.41296   h   1.091  1.011         3.1        37.3       552.4
 33  -3.29109   4.33512   2.99319   h   1.091  1.012         3.1        37.3       552.2
 34   1.29929   1.22183   9.11810   h   1.091  1.012         3.1        37.3       552.3
 35  -6.83911   1.39132  -5.01368   h   1.091  1.011         3.1        37.3       552.4
 36  -1.40245   5.98989  -0.81695   h   1.091  1.013         3.1        37.3       552.2
 37  -3.16089   2.84398  -8.25280   h   1.091  1.012         3.1        37.3       552.3
 38  -5.75350   3.33436  -0.42554   h   1.091  1.011         3.1        37.3       552.4
 39   1.39174  -6.01848   0.80889   h   1.091  1.013         3.1        37.3       552.2
 40   3.11249  -2.90427   8.26676   h   1.091  1.012         3.1        37.3       552.3
 41  -0.25554  -5.72331   5.63512   h   1.091  1.011         3.1        37.3       552.4
 42   4.32665   4.12195   6.19286   h   1.091  1.011         3.1        37.3       552.4
 43   0.20540   5.69851  -5.65676   h   1.091  1.011         3.1        37.3       552.4
 44  -4.26240  -4.13703  -6.26195   h   1.091  1.011         3.1        37.3       552.4

molecular C6(AA) [au] =     27201.30

           DFT-D V3
 DF tpssh                                             
 parameters
 s6       :    1.0000
 s8       :    1.2190
 rs6      :    1.2230
 rs18     :    1.0000
 alpha6   :   14.0000
 alpha8   :   16.0000
 k1-k3    :   16.0000    1.3333   -4.0000
 
 Edisp /kcal,au:   -27.7739 -0.04426051

 E6    /kcal :    -8.5719
 E8    /kcal :   -19.2020
 % E8        : 69.14
 nuclear repulsion energy                  =    1829.705121116
 empirical dispersive energy correction    =      -0.044260511
 nuclear repulsion + dispersion correction =    1829.660860605


         -----------------
         -S,T+V- integrals
         -----------------

 1e-integrals will be neglected if expon. factor < 0.693353E-12


          ----------------
          -ecp-  integrals
          ----------------
 
   Difference densities algorithm switched on.
   The maximal number of linear combinations of
   difference densities is                    20 .

 DIIS switched on: error vector is FDS-SDF
 Max. Iterations for DIIS is     :   4
 DIIS matrix (see manual) 
    Scaling factor of diagonals  :  1.200
    threshold for scaling factor :  0.000

 scf convergence criterion : increment of total energy < .1000000D-06
                  and increment of one-electron energy < .1000000D-03

  MOs are in ASCII format !


 closed shell shift switched on 
 all occupied orbitals are shifted by    0.05000


 reading orbital data $uhfmo_alpha  from file alpha
 orbital characterization : scfconv=7

 reading orbital data $uhfmo_beta  from file beta
 orbital characterization : scfconv=7
 mo-orthogonalization by Cholesky decomposition
 mo-orthogonalization by Cholesky decomposition

 DSCF restart information will be dumped onto file alpha


 Starting SCF iterations

          Overall gridpoints after grid construction =        213188

 ITERATION  ENERGY          1e-ENERGY        2e-ENERGY     NORM[dD(SAO)]  TOL
   1  -851.83037952691    -4831.8573835     2150.3661434    0.000D+00 0.692D-11
                            Exc = -115.148137032     Coul =  2277.60296060    
                            exK = -12.0886801928    
                         Ntotal = 165.00150901      Nspin =0.99991289568    
                             Na = 83.000710953         Nb = 82.000798057    
                          Ediel =-0.624023461254E-01
                            current damping = 0.700
 
          max. resid. norm for Fia-block=  1.006D-04 for orbital      5a    alpha
          max. resid. fock norm         =  3.948D-03 for orbital    451a    alpha

 ITERATION  ENERGY          1e-ENERGY        2e-ENERGY     NORM[dD(SAO)]  TOL
   2  -851.83037979982    -4831.8570356     2150.3657951    0.822D-03 0.439D-11
                            Exc = -115.148143518      Eck =  2265.51393867    
                         Ntotal = 165.00150907      Nspin =0.99991289327    
                             Na = 83.000710982         Nb = 82.000798088    
                          Ediel =-0.624027151778E-01
                            current damping = 0.650
 
          Norm of current diis error: 0.38640E-03
          max. resid. norm for Fia-block=  4.189D-05 for orbital      5a    alpha
          max. resid. fock norm         =  1.626D-03 for orbital    451a    alpha

 ENERGY CONVERGED !

          Overall gridpoints after grid construction =        676876

 ITERATION  ENERGY          1e-ENERGY        2e-ENERGY     NORM[dD(SAO)]  TOL
   3  -851.82982456629    -4831.8570862     2150.3664010    0.172D-03 0.334D-11
                            Exc = -115.147572219      Eck =  2265.51397323    
                         Ntotal = 164.99996828      Nspin =0.99997457395    
                             Na = 82.999971429         Nb = 81.999996855    
                          Ediel =-0.624023351582E-01
                            current damping = 0.700
 
          Norm of current diis error: 0.17773E-03
          max. resid. norm for Fia-block=  1.979D-05 for orbital     83a    alpha
          max. resid. fock norm         =  6.404D-04 for orbital    451a    alpha

 End of SCF iterations
 COSMO: write data to file cosmo_transfer.tmp

   convergence criteria satisfied after    3 iterations


                  ------------------------------------------ 
                 |  total energy      =   -851.82982456629  |
                  ------------------------------------------ 
                 :  kinetic energy    =    790.36024056062  :
                 :  potential energy  =  -1642.19006512691  :
                 :  virial theorem    =      1.92783818759  :
                 :  wavefunction norm =      1.00000000000  :
                  .......................................... 


 orbitals $uhfmo_beta  will be written to file beta

 orbitals $uhfmo_alpha  will be written to file alpha
 
 alpha: 

    irrep                 79a         80a         81a         82a         83a   
 eigenvalues H         -0.19210    -0.19112    -0.18983    -0.17789    -0.04653
            eV          -5.2273     -5.2008     -5.1656     -4.8408     -1.2661
 occupation              1.0000      1.0000      1.0000      1.0000      1.0000 

    irrep                 84a         85a         86a         87a         88a   
 eigenvalues H         -0.01882     0.02389     0.03391     0.03411     0.04311
            eV          -0.5121      0.6502      0.9228      0.9281      1.1731
 
 beta:  

    irrep                 78a         79a         80a         81a         82a   
 eigenvalues H         -0.19464    -0.19021    -0.18867    -0.18737    -0.17670
            eV          -5.2964     -5.1758     -5.1340     -5.0985     -4.8083
 occupation              1.0000      1.0000      1.0000      1.0000      1.0000 

    irrep                 83a         84a         85a         86a         87a   
 eigenvalues H         -0.01088     0.00442     0.02540     0.03781     0.03992
            eV          -0.2961      0.1201      0.6912      1.0289      1.0863
 
 ==============================================================================
                                  COSMO RESULTS
 ==============================================================================
  PARAMETER:
    nppa:      1082
    nspa:        92
    nsph:        32
    nps:       1414
    npspher:    547
    disex:   10.0000    
    disex2:  4444.89    
    rsolv [A]: 1.3000
    routf:     0.8500
    phsran:    0.0    
    ampran:   0.10E-04
    cavity:  closed
    epsilon:     7.600
    refind:     1.300
    fepsi:      0.8148148
  CAVITY VOLUME/AREA [a.u.]:
    surface: V1.0, A matrix: V1.0
    area:  1177.73
    volume:  2896.57
  SCREENING CHARGE:
    cosmo      :   0.952851
    correction :   0.044842
    total      :   0.997693
  ENERGIES [a.u.]:
    Total energy            =    -851.8298245662941
    Total energy + OC corr. =     -851.8360663881
    Dielectric energy       =       -0.0624023352
    Diel. energy + OC corr. =       -0.0686441570
  ELEMENT RADIUS [A]: ATOM LIST
    y  2.22: 1,13
    h  1.30: 2,14,25-44
    c  2.00: 3-12,15-24
 ==============================================================================

                                             _ _ _ 
  IRREP     alpha occ.     beta occ.      tr(D*D-D)


 a         83.00000000    82.00000000    -0.25069829

   -------------------------------------------------

   sum     83.00000000    82.00000000    -0.25069829

 <S*S>     0.75139658

 
 
 
 ==============================================================================
                           electrostatic moments
 ==============================================================================

 reference point for electrostatic moments:    0.00000   0.00000   0.00000

 
              nuc           elec       ->  total
 ------------------------------------------------------------------------------
                          charge      
 ------------------------------------------------------------------------------
         164.000000    -165.000000      -1.000000
 a-b                                     1.000000
 
 ------------------------------------------------------------------------------
                       dipole moment  
 ------------------------------------------------------------------------------
   x       1.483846      -1.494210      -0.010364
   y      -2.672839       2.689546       0.016707
   z      -0.034560       0.029812      -0.004748
 
   | dipole moment | =     0.0202 a.u. =     0.0514 debye 
 
 ------------------------------------------------------------------------------
                     quadrupole moment
 ------------------------------------------------------------------------------
  xx    1251.577860   -1385.300158    -133.722298
  yy    2033.052437   -2181.845605    -148.793168
  zz    3927.036694   -4071.773622    -144.736928
  xy    -745.153372     755.147137       9.993766
  xz    1043.066613   -1046.443967      -3.377353
  yz     157.193462    -160.736408      -3.542946
 
     1/3  trace=    -142.417464
     anisotropy=      23.536273

 CONSTRUCTING NATURAL ORBITALS ...

    irrep  a   
      tr[ S**1/2 D S**1/2 ] :  165.000000000120
        occupation of NO's  :    1.999999999979
                                 1.999999999977
                                 1.999999999975
                                 1.999999999974
                                 1.999999999972
                                 1.999999999970
                                 1.999999999967
                                 1.999999999965
                                 1.999999999962
                                 1.999999999960
                                 1.999999999949
                                 1.999999999948
                                 1.999999999930
                                 1.999999999925
                                 1.999999999918
                                 1.999999999912
                                 1.999999999859
                                 1.999999999856
                                 1.999999999830
                                 1.999999999809
                                 1.999999980201
                                 1.999999973142
                                 1.999999969763
                                 1.999999969330
                                 1.999999966904
                                 1.999999963523
                                 1.999999956458
                                 1.999999955717
                                 1.999999954192
                                 1.999999946375
                                 1.999999941905
                                 1.999999937775
                                 1.999999929442
                                 1.999999928785
                                 1.999999927312
                                 1.999999923703
                                 1.999999910948
                                 1.999999908668
                                 1.999999896417
                                 1.999999891120
                                 1.999999886693
                                 1.999999872051
                                 1.999999869014
                                 1.999999862591
                                 1.999999816849
                                 1.999999815935
                                 1.999999685311
                                 1.999999625776
                                 1.999999613306
                                 1.999999568738
                                 1.999999519508
                                 1.999999512656
                                 1.999999496748
                                 1.999999485051
                                 1.999999355784
                                 1.999999270482
                                 1.999999236686
                                 1.999999057542
                                 1.999998903211
                                 1.999998060412
                                 1.999997948183
                                 1.999997894262
                                 1.999997788895
                                 1.999997168705
                                 1.999996860313
                                 1.999996806445
                                 1.999995955714
                                 1.999995837893
                                 1.999993919606
                                 1.999991943752
                                 1.999988567648
                                 1.999988316865
                                 1.999983888089
                                 1.999978374827
                                 1.999976031524
                                 1.999972954914
                                 1.999965520588
                                 1.999950897185
                                 1.999935162966
                                 1.999906119998
                                 1.999860899075
                                 1.999844478164
                                 1.000000000020
                                 0.000155521884
                                 0.000139100933
                                 0.000093879972
                                 0.000064837013
                                 0.000049102793
                                 0.000034479289
                                 0.000027045077
                                 0.000023968528
                                 0.000021625177
                                 0.000016111926
                                 0.000011683133
                                 0.000011432414
                                 0.000008056268
                                 0.000006080401
                                 0.000004162088
                                 0.000004044291
                                 0.000003193552
                                 0.000003139821
                                 0.000002831270
                                 0.000002211093
                                 0.000002105753
                                 0.000002051817
                                 0.000001939585
                                 0.000001096760
                                 0.000000942461
                                 0.000000763369
                                 0.000000729528
                                 0.000000644194
                                 0.000000514945
                                 0.000000503260
                                 0.000000487344
                                 0.000000480498
                                 0.000000431262
                                 0.000000386700
                                 0.000000374237
                                 0.000000314683
                                 0.000000184063
                                 0.000000183148
                                 0.000000137400
                                 0.000000130993
                                 0.000000127948
                                 0.000000113302
                                 0.000000108888
                                 0.000000103581
                                 0.000000091324
                                 0.000000089040
                                 0.000000076297
                                 0.000000072687
                                 0.000000071220
                                 0.000000070572
                                 0.000000062220
                                 0.000000058097
                                 0.000000053615
                                 0.000000045804
                                 0.000000044271
                                 0.000000043529
                                 0.000000036474
                                 0.000000033117
                                 0.000000030670
                                 0.000000030252
                                 0.000000026862
                                 0.000000019775
                                 0.000000000190
                                 0.000000000170
                                 0.000000000142
                                 0.000000000141
                                 0.000000000090
                                 0.000000000082
                                 0.000000000074
                                 0.000000000070
                                 0.000000000052
                                 0.000000000051
                                 0.000000000039
                                 0.000000000038
                                 0.000000000033
                                 0.000000000031
                                 0.000000000030
                                 0.000000000029
                                 0.000000000025
                                 0.000000000025
                                 0.000000000024
                                 0.000000000024
                                 0.000000000000
                                 0.000000000000
                                 0.000000000000
                                 0.000000000000
                                 0.000000000000
                                 0.000000000000
                                 0.000000000000
                                 0.000000000000
                                 0.000000000000
                                 0.000000000000
                                 0.000000000000
                                 0.000000000000
                                 0.000000000000
                                 0.000000000000
                                 0.000000000000
                                 0.000000000000
                                 0.000000000000
                                 0.000000000000
                                 0.000000000000
                                 0.000000000000
                                 0.000000000000
                                 0.000000000000
                                 0.000000000000
                                 0.000000000000
                                 0.000000000000
                                 0.000000000000
                                 0.000000000000
                                 0.000000000000
                                 0.000000000000
                                 0.000000000000
                                 0.000000000000
                                 0.000000000000
                                 0.000000000000
                                 0.000000000000
                                 0.000000000000
                                 0.000000000000
                                 0.000000000000
                                 0.000000000000
                                 0.000000000000
                                 0.000000000000
                                 0.000000000000
                                 0.000000000000
                                 0.000000000000
                                 0.000000000000
                                 0.000000000000
                                 0.000000000000
                                 0.000000000000
                                 0.000000000000
                                 0.000000000000
                                 0.000000000000
                                 0.000000000000
                                 0.000000000000
                                 0.000000000000
                                 0.000000000000
                                 0.000000000000
                                 0.000000000000
                                 0.000000000000
                                 0.000000000000
                                 0.000000000000
                                 0.000000000000
                                 0.000000000000
                                 0.000000000000
                                 0.000000000000
                                 0.000000000000
                                 0.000000000000
                                 0.000000000000
                                 0.000000000000
                                 0.000000000000
                                 0.000000000000
                                 0.000000000000
                                 0.000000000000
                                 0.000000000000
                                 0.000000000000
                                 0.000000000000
                                 0.000000000000
                                 0.000000000000
                                 0.000000000000
                                 0.000000000000
                                 0.000000000000
                                 0.000000000000
                                 0.000000000000
                                 0.000000000000
                                 0.000000000000
                                 0.000000000000
                                 0.000000000000
                                 0.000000000000
                                 0.000000000000
                                 0.000000000000
                                 0.000000000000
                                 0.000000000000
                                 0.000000000000
                                 0.000000000000
                                 0.000000000000
                                 0.000000000000
                                 0.000000000000
                                 0.000000000000
                                 0.000000000000
                                 0.000000000000
                                 0.000000000000
                                 0.000000000000
                                 0.000000000000
                                 0.000000000000
                                 0.000000000000
                                 0.000000000000
                                 0.000000000000
                                 0.000000000000
                                 0.000000000000
                                 0.000000000000
                                 0.000000000000
                                 0.000000000000
                                 0.000000000000
                                 0.000000000000
                                 0.000000000000
                                 0.000000000000
                                 0.000000000000
                                 0.000000000000
                                 0.000000000000
                                 0.000000000000
                                 0.000000000000
                                 0.000000000000
                                 0.000000000000
                                 0.000000000000
                                 0.000000000000
                                 0.000000000000
                                 0.000000000000
                                 0.000000000000
                                 0.000000000000
                                 0.000000000000
                                 0.000000000000
                                 0.000000000000
                                 0.000000000000
                                 0.000000000000
                                 0.000000000000
                                 0.000000000000
                                 0.000000000000
                                 0.000000000000
                                 0.000000000000
                                 0.000000000000
                                 0.000000000000
                                 0.000000000000
                                 0.000000000000
                                 0.000000000000
                                 0.000000000000
                                 0.000000000000
                                 0.000000000000
                                 0.000000000000
                                 0.000000000000
                                 0.000000000000
                                 0.000000000000
                                 0.000000000000
                                 0.000000000000
                                -0.000000000000
                                -0.000000000000
                                -0.000000000000
                                -0.000000000000
                                -0.000000000000
                                -0.000000000000
                                -0.000000000000
                                -0.000000000000
                                -0.000000000000
                                -0.000000000000
                                -0.000000000000
                                -0.000000000000
                                -0.000000000000
                                -0.000000000000
                                -0.000000000000
                                -0.000000000000
                                -0.000000000000
                                -0.000000000000
                                -0.000000000000
                                -0.000000000000
                                -0.000000000000
                                -0.000000000000
                                -0.000000000000
                                -0.000000000000
                                -0.000000000000
                                -0.000000000000
                                -0.000000000000
                                -0.000000000000
                                -0.000000000000
                                -0.000000000000
                                -0.000000000000
                                -0.000000000000
                                -0.000000000000
                                -0.000000000000
                                -0.000000000000
                                -0.000000000000
                                -0.000000000000
                                -0.000000000000
                                -0.000000000000
                                -0.000000000000
                                -0.000000000000
                                -0.000000000000
                                -0.000000000000
                                -0.000000000000
                                -0.000000000000
                                -0.000000000000
                                -0.000000000000
                                -0.000000000000
                                -0.000000000000
                                -0.000000000000
                                -0.000000000000
                                -0.000000000000
                                -0.000000000000
                                -0.000000000000
                                -0.000000000000
                                -0.000000000000
                                -0.000000000000
                                -0.000000000000
                                -0.000000000000
                                -0.000000000000
                                -0.000000000000
                                -0.000000000000
                                -0.000000000000
                                -0.000000000000
                                -0.000000000000
                                -0.000000000000
                                -0.000000000000
                                -0.000000000000
                                -0.000000000000
                                -0.000000000000
                                -0.000000000000
                                -0.000000000000
                                -0.000000000000
                                -0.000000000000
                                -0.000000000000
                                -0.000000000000
                                -0.000000000000
                                -0.000000000000
                                -0.000000000000
                                -0.000000000000
                                -0.000000000000
                                -0.000000000000
                                -0.000000000000
                                -0.000000000000
                                -0.000000000000
                                -0.000000000000
                                -0.000000000000
                                -0.000000000000
                                -0.000000000000
                                -0.000000000000
                                -0.000000000000
                                -0.000000000000
                                -0.000000000000
                                -0.000000000000
                                -0.000000000000
                                -0.000000000000
                                -0.000000000000
                                -0.000000000000
                                -0.000000000000
                                -0.000000000000
                                -0.000000000000
                                -0.000000000000
                                -0.000000000000
                                -0.000000000000
                                -0.000000000000
                                -0.000000000000
                                -0.000000000000
                                -0.000000000000
                                -0.000000000000
                                -0.000000000000
                                -0.000000000000
                                -0.000000000000
                                -0.000000000000
                                -0.000000000000
                                -0.000000000000
                                -0.000000000000
                                -0.000000000000
                                -0.000000000000
                                -0.000000000000
                                -0.000000000000
                                -0.000000000000
                                -0.000000000000
                                -0.000000000000
                                -0.000000000000
                                -0.000000000000
                                -0.000000000000
                                -0.000000000000
                                -0.000000000000
                                -0.000000000000
                                -0.000000000000
                                -0.000000000000
                                -0.000000000000
                                -0.000000000000
                                -0.000000000000
                                -0.000000000000
                                -0.000000000000
    Sum(occupation of NO's) :  165.000000000121
 
 <S*S>  0.751396576791194     

    irrep                 79a         80a         81a         82a         83a   
 occupation              1.9999      1.9999      1.9999      1.9998      1.0000 

    irrep                 84a         85a         86a         87a         88a   
 occupation              0.0002      0.0001 
 

 orbitals $natural orbitals  will be written to file natural
 
 ==============================================================================
 

    ridft profiling
  --------------------------------------------------------------------
             module   cpu total (s)       %  wall total (s)       %

               RIDFT            64.5  100.00            57.7  100.00
         Ridft_b_scf             6.2    9.64             3.0    5.17
        b_scf_prelim             0.0    0.01             0.0    0.02
        b_scf_molinp             0.0    0.01             0.0    0.01
         b_scf_init0             0.0    0.00             0.0    0.00
        b_scf_auxbas             0.0    0.01             0.0    0.01
      b_scf_symmetry             1.8    2.86             1.5    2.60
         b_scf_cosmo             1.8    2.86             1.5    2.60
        cosmo.consts             0.0    0.03             0.0    0.03
       cosmo.setamat             1.4    2.09             1.3    2.34
          cosmo.chol             0.3    0.53             0.1    0.10
        b_scf_params             1.3    2.04             0.2    0.32
          b_scf_ri-j             2.1    3.30             0.6    1.12
    b_scf_ri-j_auxpq             2.1    3.29             0.6    1.12
     ri-j_auxpq_chol             0.5    0.70             0.1    0.11
         b_scf_1elec             0.2    0.38             0.2    0.43
       b_scf_moinput             0.7    1.02             0.4    0.65
     prepare.moinput             0.3    0.43             0.3    0.48
     moinput_orthmos             0.4    0.59             0.1    0.16
    b_scf_dft-dstmax             0.0    0.00             0.0    0.00
           Ridft_scf            56.4   87.40            53.4   92.52
          Scf_b_loop             0.0    0.06             0.0    0.02
                noga             0.0    0.00             0.0    0.00
            Scf_loop            55.0   85.30            52.7   91.27
     scf_loop_mkdmat             0.1    0.20             0.0    0.06
       scf_loop_ri-j             1.1    1.65             0.3    0.48
    ri-j_near_lpdrc1             0.1    0.16             0.0    0.05
    ri-j_near_lpdrc2             0.1    0.13             0.0    0.04
       scf_loop_ex-K            20.0   30.99            19.6   33.94
         scf_loop_k1            18.9   29.28            18.8   32.55
      scf_loop_cosmo             1.8    2.80             1.8    3.13
     cosmo.calcphipa             2.6    3.99             2.0    3.51
      cosmo.coschol2             0.0    0.04             0.0    0.04
     scf_loop_symcar             0.0    0.05             0.0    0.06
      scf_loop_dfmat             0.0    0.01             0.0    0.01
        scf_loop_dft            28.8   44.68            28.8   49.90
        dft_grid_con             1.3    1.96             1.3    2.19
         dft_xc_eval            27.4   42.49            27.4   47.46
     scf_loop_energy             0.0    0.00             0.0    0.00
     scf_loop_mkfock             1.8    2.77             1.8    3.09
        cosmo_mkfock             1.8    2.77             1.8    3.09
       cosmo.dohqmat             1.8    2.76             1.8    3.09
       scf_loop_diis             0.3    0.45             0.1    0.13
       scf_loop_diag             1.1    1.69             0.3    0.47
          diag_rdiag             0.0    0.00             0.0    0.00
     scf_loop_modump             0.0    0.00             0.0    0.00
          Scf_a_loop             1.3    2.04             0.7    1.23
               Cosmo             0.9    1.43             0.3    0.60
           cosmo usa             0.0    0.01             0.0    0.02
         Ridft_a_scf             1.9    2.95             1.3    2.30
         a_scf_fanal             1.9    2.93             1.3    2.30
 


    ------------------------------------------------------------------------
         total  cpu-time :  1 minutes and  5 seconds
         total wall-time :  58.31 seconds
    ------------------------------------------------------------------------

   ****  ridft : all done  ****


    2018-01-23 16:12:08.601 

 ridft ended normally
fine, there is no data group "$actual step"
next step = rdgrad
 energy change  : actual value =  -0.8870E-07 threshold =   0.1000E-05
 geom. gradient : actual value =   0.1401E-03 threshold =   0.1000E-02

CONVERGENCY CRITERIA FULFILLED IN CYCLE 9

