
OPTIMIZATION CYCLE 185
Wed Mar  7 21:44:50 PST 2018
 hostname is c-5-42.local

 frog (c-5-42.local) : TURBOMOLE V7.1 ( ) 5 Apr 2016 at 11:29:09
 Copyright (C) 2016 TURBOMOLE GmbH, Karlsruhe


    2018-03-07 21:44:50.233 


 frog (c-5-42.local) : TURBOMOLE V7.1 ( ) 5 Apr 2016 at 11:29:09
 Copyright (C) 2016 TURBOMOLE GmbH, Karlsruhe


    2018-03-07 21:44:50.233 

 
       `--._            A b     I n i t i o           .-
            `.  M o l e c u l a r   D y n a m i c s  /
              \               .-.       .           / 
               \             /   \     / `.        /  
                `-----._    /     `._.'    `--.__.'   
                        `--'                          
 
 

Reading information from mdmaster                                                                        
 
 =========================================
 TDDFT-SURFACE HOPPING switched on
 Tapavicza, Meyer, and Furche,
 Phys. Chem. Chem. Phys. 13 (2011), 20986.
 =========================================
 
 found keyword $gap_threshold; hop is enforced if gap <  0.500000000000000     
Reading log history information from mdmaster                                                                        
Reading input data from mdlog.1                                                                         
Checking for non-default isotopic masses in control                                                                         
 
No constraints requested.
Reading status from mdmaster                                                                        
Reading actions from mdmaster                                                                        
Getting gradients from control                                                                         
 non-adiabatic coupling vector
 -0.321448023488680       0.393401361991610      -0.151156789454190     
  0.178296813464200      -6.231600838941600E-002 -4.859137119677600E-002
 -0.110906430267740      -1.778374103681200E-003 -4.620404238123800E-002
 -5.401186717148700E-002 -5.825984991523300E-002 -5.587786699275600E-002
  0.101006471225040      -0.134273748410860       3.420556186929100E-002
 -5.857196308019600E-002 -3.546369343747300E-002  1.590851869108300E-002
  5.318057554855500E-002 -0.295850210853690       0.275842375193240     
  7.478792271613501E-002  0.136128644061140      -8.059447509934900E-002
 -8.236867293440800E-002  5.482954533846600E-002 -2.943466944149700E-002
 leap: Read last 2 entries of RUN.dat
 Old state:           1
 New state:           1
 Propagating Coefficients
 
 ==============Surface Hopping Information================
 
 Probability from           2 to           1 : -3.833803400042536E-004
 Random number   0.950013369205935     
 
 
 Excitation energy < Threshold.
 Hop to ground state is enforced.
 Switching coefficients.
 COEFF OF STATE           1 = (0.996727972447869,2.760823639231005E-004)
 COEFF OF STATE           2 = (-2.312325407335703E-002,-7.745055093157573E-002)
 
 POPULATION OF STATE           1 =  0.993466727281512     
 POPULATION OF STATE           2 =  6.533272718545628E-003
 SUM OF ALL POPULATIONS =   1.00000000000006     
 
 
 Surface Hop from State           1
 
 =========================================================
 
Scaling KE by   0.967092870805    
 
Generating $log data for last completed MD step:                                
t=   7360.00000000                                                              
-0.253277237867      0.114274709539     -0.636648849601E-01 ti                  
  1.65802533426      -2.79174885072       2.25084334183     o                   
 -2.82076217067     -0.638086710898      -1.94963545184     o                   
 -3.12193489203     -0.814656026490      -5.41087021122     h                   
-0.580819355136       2.67660567028       2.07831668869     o                   
 -2.25233817112       3.67292389285       2.45901005646     h                   
  2.50877637178      0.468077570275      -2.07135718900     o                   
  4.25135120884      0.802251591729      -1.51215536925     h                   
  1.01271462428      -4.56480285619       2.59794304253     h                   
  40.0000000000       0.00000000000                                             
ti       -0.935804688470E-04 -0.418288363510E-04  0.223303143531E-04            
o        -0.807611007834E-04  0.121462744659E-04 -0.553326145350E-04            
o         0.282771926395E-03 -0.820286150254E-05  0.313994678356E-03            
h        -0.426805599911E-03  0.526092289907E-04 -0.271222612534E-02            
o         0.736882676742E-04  0.756464213432E-04 -0.695793617478E-05            
h        -0.103652380332E-02  0.103528304872E-02 -0.343051294176E-04            
o         0.830368429035E-04 -0.499913905286E-04 -0.112274811035E-03            
h         0.223806058422E-03  0.140248466844E-02 -0.743201823658E-04            
h        -0.759254415966E-05 -0.972430569682E-03 -0.453459686265E-03            
 0.136931965996E-01  -1151.87730085       0.00000000000                         
 0.369859664258E-01  0.218398906792E-01  0.669581312751E-01                     
 0.188380306394E-01  0.347079737705E-01 -0.286368960733E-02                     
-0.627899362822E-01 -0.201308193845E-01 -0.456750851805E-01                     
-0.287966282231E-02 -0.842523240305E-04 -0.132358647471E-01                     
 0.611218380568E-01 -0.335285945827E-01 -0.144383550509E-01                     
-0.558071119857E-01  0.326357707131E-01  0.129003677096E-01                     
-0.313609187028E-02  0.383347585391E-02 -0.168108375248E-01                     
 0.200315422503E-01 -0.411126482072E-03  0.419118599337E-02                     
-0.123645740441E-01 -0.388623186679E-01  0.897414633429E-02                     
 

   Time t=   7360.00000000     a.u. (  178.023680000     fs)

   e x e c u t i n g    M D   s t e p   (leapfrog algorithm)

   Number of MD steps left:    1315
 
   Time t=   7400.00000000     a.u. (  178.991200000     fs)

 
Provisional $current data:                                                      
t=   7400.00000000                                                              
-0.257698193931      0.112201358113     -0.639986248812E-01 ti                  
  1.65376143483      -2.79316708110       2.24878713942     o                   
 -2.80600663424     -0.637310447494      -1.93456992701     o                   
 -3.13649954080     -0.812478291435      -5.50783362683     h                   
-0.581224971843       2.68147090769       2.07883046020     o                   
 -2.24520297157       3.68591638416       2.44640436860     h                   
  2.51226989167      0.465867609957      -2.07492593797     o                   
  4.24286022878      0.858708982387      -1.51877781013     h                   
  1.02317784261      -4.56985924641       2.57199007803     h                   
  40.0000000000       0.00000000000                                             
ti       -0.108690177611E-03 -0.509738010296E-04 -0.820506939524E-05            
o        -0.104828905783E-03 -0.348675059702E-04 -0.505521887212E-04            
o         0.362768109902E-03  0.190846065913E-04  0.370389242953E-03            
h        -0.358075094835E-03  0.535400954999E-04 -0.238386690822E-02            
o        -0.997217598848E-05  0.119612932147E-03  0.126311855991E-04            
h         0.175420451059E-03  0.319423257658E-03 -0.309913609727E-03            
o         0.858889551851E-04 -0.543323606991E-04 -0.877384785776E-04            
h        -0.208752613120E-03  0.138801737203E-02 -0.162814166250E-03            
h         0.257240525041E-03 -0.124312466087E-03 -0.638059342842E-03            
 
    50 energy records for statistics read from mdlog.1                                                                         
       Total Energy (H):
              current value   -1151.86360765    
                    average   -1151.86472501    
         standard deviation   0.998555721827E-02
                      drift  -0.808489694282E-04
        jump from last step  -0.426618655638E-04
 
     Kinetic Energy (H):
              current value   0.136931965996E-01
                    average   0.262529559457E-01
         standard deviation   0.167155988509E-01
                      drift  -0.374318711023E-03
 avg. quasi-temperature (K)    789.454554210    
      number of constraints       0
 
         Pressure (GPa):
              current value    0.00000000000    
                    average    0.00000000000    
 
 
   approx integration error   0.605949395337E-02
 
Estimated integration error by reading last steps from mdlog.1                  
 
Generating $log data for last completed MD step:                                
t=   7360.00000000                                                              
-0.253277237867      0.114274709539     -0.636648849601E-01 ti                  
  1.65802533426      -2.79174885072       2.25084334183     o                   
 -2.82076217067     -0.638086710898      -1.94963545184     o                   
 -3.12193489203     -0.814656026490      -5.41087021122     h                   
-0.580819355136       2.67660567028       2.07831668869     o                   
 -2.25233817112       3.67292389285       2.45901005646     h                   
  2.50877637178      0.468077570275      -2.07135718900     o                   
  4.25135120884      0.802251591729      -1.51215536925     h                   
  1.01271462428      -4.56480285619       2.59794304253     h                   
  40.0000000000       0.00000000000                                             
ti       -0.935804688470E-04 -0.418288363510E-04  0.223303143531E-04            
o        -0.807611007834E-04  0.121462744659E-04 -0.553326145350E-04            
o         0.282771926395E-03 -0.820286150254E-05  0.313994678356E-03            
h        -0.426805599911E-03  0.526092289907E-04 -0.271222612534E-02            
o         0.736882676742E-04  0.756464213432E-04 -0.695793617478E-05            
h        -0.103652380332E-02  0.103528304872E-02 -0.343051294176E-04            
o         0.830368429035E-04 -0.499913905286E-04 -0.112274811035E-03            
h         0.223806058422E-03  0.140248466844E-02 -0.743201823658E-04            
h        -0.759254415966E-05 -0.972430569682E-03 -0.453459686265E-03            
 0.136931965996E-01  -1151.87730085       0.00000000000                         
 0.369859664258E-01  0.218398906792E-01  0.669581312751E-01                     
 0.188380306394E-01  0.347079737705E-01 -0.286368960733E-02                     
-0.627899362822E-01 -0.201308193845E-01 -0.456750851805E-01                     
-0.287966282231E-02 -0.842523240305E-04 -0.132358647471E-01                     
 0.611218380568E-01 -0.335285945827E-01 -0.144383550509E-01                     
-0.558071119857E-01  0.326357707131E-01  0.129003677096E-01                     
-0.313609187028E-02  0.383347585391E-02 -0.168108375248E-01                     
 0.200315422503E-01 -0.411126482072E-03  0.419118599337E-02                     
-0.123645740441E-01 -0.388623186679E-01  0.897414633429E-02                     
 
Generated $current data for new MD step:                                        
t=   7400.00000000                                                              
-0.257698193931      0.112201358113     -0.639986248812E-01 ti                  
  1.65376143483      -2.79316708110       2.24878713942     o                   
 -2.80600663424     -0.637310447494      -1.93456992701     o                   
 -3.13649954080     -0.812478291435      -5.50783362683     h                   
-0.581224971843       2.68147090769       2.07883046020     o                   
 -2.24520297157       3.68591638416       2.44640436860     h                   
  2.51226989167      0.465867609957      -2.07492593797     o                   
  4.24286022878      0.858708982387      -1.51877781013     h                   
  1.02317784261      -4.56985924641       2.57199007803     h                   
  40.0000000000       0.00000000000                                             
ti       -0.108690177611E-03 -0.509738010296E-04 -0.820506939524E-05            
o        -0.104828905783E-03 -0.348675059702E-04 -0.505521887212E-04            
o         0.362768109902E-03  0.190846065913E-04  0.370389242953E-03            
h        -0.358075094835E-03  0.535400954999E-04 -0.238386690822E-02            
o        -0.997217598848E-05  0.119612932147E-03  0.126311855991E-04            
h         0.175420451059E-03  0.319423257658E-03 -0.309913609727E-03            
o         0.858889551851E-04 -0.543323606991E-04 -0.877384785776E-04            
h        -0.208752613120E-03  0.138801737203E-02 -0.162814166250E-03            
h         0.257240525041E-03 -0.124312466087E-03 -0.638059342842E-03            
 
Logging MD run data ($log) to file mdlog.1                                                                         
Writing data for next step ($current) to mdlog.1                                                                         

    2018-03-07 21:44:51.481 

         total cpu-time :   0.71 seconds
         total wall-time :   1.25 seconds

          ******************************************************



    ------------------------------------------------------------------------
         total  cpu-time :   0.71 seconds
         total wall-time :   1.29 seconds
    ------------------------------------------------------------------------

   ****  frog : all done  ****


    2018-03-07 21:44:51.481 

 operating system is UNIX !
 hostname is c-5-42.local

 ridft (c-5-42.local) : TURBOMOLE V7.1 ( ) 5 Apr 2016 at 11:29:09
 Copyright (C) 2016 TURBOMOLE GmbH, Karlsruhe


    2018-03-07 21:44:51.631 



                                  r i d f t

                        DFT program with RI approximation 
                                for coulomb part 




                                                 
                                 References:     
                                                 
          TURBOMOLE:                             
              R. Ahlrichs, M. Baer, M. Haeser, H. Horn, and
              C. Koelmel
              Electronic structure calculations on workstation
              computers: the program system TURBOMOLE
              Chem. Phys. Lett. 162: 165 (1989)
          Density Functional:                              
              O. Treutler and R. Ahlrichs                      
              Efficient Molecular Numerical Integration Schemes
              J. Chem. Phys. 102: 346 (1995)                   
          Parallel Version:                                
              Performance of parallel TURBOMOLE for Density    
              Functional Calculations                          
              M. v. Arnim and R. Ahlrichs                      
              J. Comp. Chem. 19: 1746 (1998)                   
          RI-J Method:                                     
              Auxiliary Basis Sets to approximate Coulomb      
              Potentials                                       
              Chem. Phys. Lett. 240: 283 (1995)                
              K. Eichkorn, O. Treutler, H. Oehm, M. Haeser     
              and R. Ahlrichs                                  
              Chem. Phys. Lett. 242: 652 (1995)                
                                                           
              Auxiliary Basis Sets for Main Row Atoms and their
              Use to approximate Coulomb Potentials            
              K. Eichkorn, F. Weigend, O. Treutler and         
              R. Ahlrichs                                      
              Theo. Chem. Acc. 97: 119 (1997)                   
                                                           
              Accurate Coulomb-fitting basis sets for H to Rn 
              F. Weigend                                        
              Phys. Chem. Chem. Phys. 8: 1057 (2006)            
                                                           
          Multipole accelerated RI-J (MARI-J):             
              Fast evaluation of the Coulomb potential for     
              electron densities using multipole accelerated   
              resolution of identity approximation             
              M. Sierka, A. Hogekamp and R. Ahlrichs           
              J. Chem. Phys. 118: 9136 (2003)                  
          RI-JK Method:                                     
              A fully direct RI-HF algorithm: Implementation,
              optimised auxiliary basis sets, demonstration of
              accuracy and efficiency                         
              F. Weigend                                      
              Phys. Chem. Chem. Phys. 4: 4285 (2002)           
          Two-component HF and DFT with spin-orbit coupling:  
              Self-consistent treatment of spin-orbit         
              interactions with efficient Hartree-Fock and    
              density functional methods                      
              M. K. Armbruster, F. Weigend, C. van Wüllen and 
              W. Klopper                                      
              Phys. Chem. Chem. Phys. 10: 1748 (2008)         
          Relativistic all-electron 2c calculations           
              An efficient implementation of two-component    
              relativistic exact-decoupling methods for large 
              molecules                                       
              D. Peng, N. Middendorf, F. Weigend, M. Reiher   
              J. Chem. Phys. 138, 184105 (2013)               
                                         


 


              +--------------------------------------------------+
              |      general information about current run       |
              +--------------------------------------------------+

 

 DENSITY CONVERGENCE CHECK SWITCHED ON !
 SCF CONVERGENCE IF RMS(delta[D]) <     0.1000000000E-06

 PBE0 hybrid functional
 exchange:    3/4 (LDA+PBE) + 1/4 HF
 correlation: LDA (PW) + PBE
 A Hybrid-DFT calculation using the RI-J approximation will be carried out.
 Allocatable memory for RI due to $ricore (MB):         500


              +--------------------------------------------------+
              | Atomic coordinate, charge and isotop information |
              +--------------------------------------------------+

                    atomic coordinates            atom    charge  isotop
         -0.25769819    0.11220136   -0.06399862    ti    22.000     0
          1.65376143   -2.79316708    2.24878714    o      8.000     0
         -2.80600663   -0.63731045   -1.93456993    o      8.000     0
         -3.13649954   -0.81247829   -5.50783363    h      1.000     0
         -0.58122497    2.68147091    2.07883046    o      8.000     0
         -2.24520297    3.68591638    2.44640437    h      1.000     0
          2.51226989    0.46586761   -2.07492594    o      8.000     0
          4.24286023    0.85870898   -1.51877781    h      1.000     0
          1.02317784   -4.56985925    2.57199008    h      1.000     0
 
       center of nuclear mass  :   -0.00000001    0.00000002    0.00000000
       center of nuclear charge:    0.00767885   -0.01093783   -0.01502091

              +--------------------------------------------------+
              |               basis set information              |
              +--------------------------------------------------+

              we will work with the 1s 3p 5d 7f 9g ... basis set
              ...i.e. with spherical basis functions...

   type   atoms  prim   cont   basis
   ---------------------------------------------------------------------------
    ti       1     73     31   def2-SVP   [5s3p2d1f|14s9p5d1f]
    o        4     24     14   def2-SVP   [3s2p1d|7s4p1d]
    h        4      7      5   def2-SVP   [2s1p|4s1p]
   ---------------------------------------------------------------------------
   total:    9    197    107
   ---------------------------------------------------------------------------

   total number of primitive shells          :   46
   total number of contracted shells         :   47
   total number of cartesian basis functions :  116
   total number of SCF-basis functions       :  107


 integral neglect threshold       :  0.29E-10
 integral storage threshold THIZE :  0.10E-04
 integral storage threshold THIME :         5

 RI-J AUXILIARY BASIS SET information:

              we will work with the 1s 3p 5d 7f 9g ... basis set
              ...i.e. with spherical basis functions...

   type   atoms  prim   cont   basis
   ---------------------------------------------------------------------------
    ti       1    107     89   def2-SVP   [8s5p5d2f3g|19s5p5d3f3g]
    o        4     70     49   def2-SVP   [6s4p3d1f1g|12s5p4d2f1g]
    h        4     16     11   def2-SVP   [3s1p1d|5s2p1d]
   ---------------------------------------------------------------------------
   total:    9    451    329
   ---------------------------------------------------------------------------

   total number of primitive shells          :   67
   total number of contracted shells         :  103
   total number of cartesian basis functions :  410
   total number of SCF-basis functions       :  329


 symmetry group of the molecule :   c1 

 the group has the following generators :
   c1(z)

    1 symmetry operations found

 there are 1 real representations :   a   

 maximum number of shells which are related by symmetry :  1


    mo occupation :
   irrep   mo's   occupied
    a      107       29
 
 number of basis functions   :          107
 number of occupied orbitals :           29
 
  
           ------------------
           density functional
           ------------------
 PBE0 hybrid functional
 exchange:    3/4 (LDA+PBE) + 1/4 HF
 correlation: LDA (PW) + PBE
 iterations will be done with small grid
  
 spherical integration : Lebedev's spherical grid
 spherical gridsize    :           3
    i.e. gridpoints    :         302
 value for diffuse not defined
 radial integration    : Chebyshev 2nd kind (scaling 3)
 radial gridsize       :           3
 integration cells     :           9
 partition function    : becke
 partition sharpness   :           3
  

 biggest AO integral is expected to be    13.493451081
  
           ------------------------
               RI-J - INFORMATION
           ------------------------
 Contributions to RI integral batches: 
  neglected integral batches:          87
  direct contribution:                  0
  memory contribution:        1041
 Memory core needed for (P|Q) and Cholesky      1 MByte
 Memory core minimum needed except of (P|Q)     1 MByte
 Total minimum memory core needed (sum)         1 MByte
  
 ****************************************
 Memory allocated for RI-J    22 MByte
 ****************************************
                                            

          ------------------------
          nuclear repulsion energy  :   312.272077827    
          ------------------------

 
          -----------------
          -S,T+V- integrals
          -----------------

 1e-integrals will be neglected if expon. factor < 0.288100E-11
 
   Difference densities algorithm switched on.
   The maximal number of linear combinations of
   difference densities is          20 .

 DIIS switched on: error vector is FDS-SDF
 Max. Iterations for DIIS is     :   4
 DIIS matrix (see manual) 
    Scaling factor of diagonals  :  1.200
    threshold for scaling factor :  0.000

 scf convergence criterion : increment of total energy < .1000000D-06
                  and increment of one-electron energy < .1000000D-03

  MOs are in ASCII format !


 automatic virtual orbital shift switched on 
      shift if e(lumo)-e(homo) < 0.10000000    


 reading orbital data $scfmo  from file mos
 orbital characterization : scfconv=7

 DSCF restart information will be dumped onto file mos


 Starting SCF iterations

          Overall gridpoints after grid construction =         13536

 ITERATION  ENERGY          1e-ENERGY        2e-ENERGY     RMS[dD(SAO)]   TOL
   1  -1151.8742312204    -2203.9107579     739.76444883    0.000D+00 0.287D-10
                            Exc = -58.3571184935     Coul =  816.838226664    
                            exK = -18.7166593398    
                              N = 57.999548551    
                            current damping = 0.700
 
          max. resid. norm for Fia-block=  6.370D-03 for orbital     27a         
          max. resid. fock norm         =  3.452D-02 for orbital    106a         
          irrep a   : virtual orbitals shifted by    0.04189

 ITERATION  ENERGY          1e-ENERGY        2e-ENERGY     RMS[dD(SAO)]   TOL
   2  -1151.8744912976    -2203.8504604     739.70389125    0.291D-03 0.182D-10
                            Exc = -58.3538379216      Eck =  798.057729175    
                              N = 57.999544463    
                            current damping = 0.650
 
          Norm of current diis error: 0.18354E-01
          max. resid. norm for Fia-block=  3.140D-03 for orbital     20a         
          max. resid. fock norm         =  1.421D-02 for orbital    106a         
          irrep a   : virtual orbitals shifted by    0.04986

 ITERATION  ENERGY          1e-ENERGY        2e-ENERGY     RMS[dD(SAO)]   TOL
   3  -1151.8745387070    -2203.9157218     739.76910526    0.195D-03 0.143D-10
                            Exc = -58.3582541058      Eck =  798.127359366    
                              N = 57.999541958    
                            current damping = 0.600
 
          Norm of current diis error: 0.17217E-01
          max. resid. norm for Fia-block=  1.704D-03 for orbital     20a         
          max. resid. fock norm         =  5.602D-03 for orbital    106a         
          irrep a   : virtual orbitals shifted by    0.05250

 ITERATION  ENERGY          1e-ENERGY        2e-ENERGY     RMS[dD(SAO)]   TOL
   4  -1151.8745980187    -2203.8781366     739.73146078    0.122D-03 0.127D-10
                            Exc = -58.3556561394      Eck =  798.087116921    
                              N = 57.999541632    
                            current damping = 0.650
 
          Norm of current diis error: 0.38012E-02
          max. resid. norm for Fia-block=  6.712D-04 for orbital     27a         
          max. resid. fock norm         =  2.103D-03 for orbital    106a         
          irrep a   : virtual orbitals shifted by    0.05105

 ITERATION  ENERGY          1e-ENERGY        2e-ENERGY     RMS[dD(SAO)]   TOL
   5  -1151.8746073925    -2203.8663877     739.71970244    0.731D-04 0.112D-10
                            Exc = -58.3555876549      Eck =  798.075290093    
                              N = 57.999541277    
                            current damping = 0.500
 
          Norm of current diis error: 0.21675E-02
          max. resid. norm for Fia-block=  3.523D-04 for orbital     28a         
          max. resid. fock norm         =  8.319D-04 for orbital    106a         
          irrep a   : virtual orbitals shifted by    0.05567
          mo-orthogonalization: Cholesky decomposition

 ITERATION  ENERGY          1e-ENERGY        2e-ENERGY     RMS[dD(SAO)]   TOL
   6  -1151.8746120060    -2203.8754859     739.72879606    0.579D-04 0.102D-10
                            Exc = -58.3553750241      Eck =  798.084171087    
                              N = 57.999541271    
                            current damping = 0.550
 
          Norm of current diis error: 0.18059E-02
          max. resid. norm for Fia-block=  2.844D-04 for orbital     28a         
          max. resid. fock norm         =  3.181D-04 for orbital     30a         
          irrep a   : virtual orbitals shifted by    0.05394

 ITERATION  ENERGY          1e-ENERGY        2e-ENERGY     RMS[dD(SAO)]   TOL
   7  -1151.8746149139    -2203.8696563     739.72296355    0.450D-04 0.940D-11
                            Exc = -58.3556029772      Eck =  798.078566524    
                              N = 57.999541312    
                            current damping = 0.600
 
          Norm of current diis error: 0.10472E-02
          max. resid. norm for Fia-block=  2.201D-04 for orbital     28a         
          max. resid. fock norm         =  2.738D-04 for orbital     30a         
          irrep a   : virtual orbitals shifted by    0.05223

 ITERATION  ENERGY          1e-ENERGY        2e-ENERGY     RMS[dD(SAO)]   TOL
   8  -1151.8746169522    -2203.8700828     739.72338799    0.405D-04 0.869D-11
                            Exc = -58.3554748765      Eck =  798.078862863    
                              N = 57.999541497    
                            current damping = 0.650
 
          Norm of current diis error: 0.81927E-03
          max. resid. norm for Fia-block=  1.961D-04 for orbital     28a         
          max. resid. fock norm         =  2.577D-04 for orbital     30a         
          irrep a   : virtual orbitals shifted by    0.05057

 ITERATION  ENERGY          1e-ENERGY        2e-ENERGY     RMS[dD(SAO)]   TOL
   9  -1151.8746186715    -2203.8689960     739.72229947    0.396D-04 0.800D-11
                            Exc = -58.3555382798      Eck =  798.077837753    
                              N = 57.999541686    
                            current damping = 0.700
 
          Norm of current diis error: 0.67370E-03
          max. resid. norm for Fia-block=  1.923D-04 for orbital     29a         
          max. resid. fock norm         =  2.534D-04 for orbital     30a         
          irrep a   : virtual orbitals shifted by    0.04885

 ITERATION  ENERGY          1e-ENERGY        2e-ENERGY     RMS[dD(SAO)]   TOL
  10  -1151.8746202889    -2203.8687598     739.72206168    0.416D-04 0.731D-11
                            Exc = -58.3555195047      Eck =  798.077581189    
                              N = 57.999541953    
                            current damping = 0.550
 
          Norm of current diis error: 0.58421E-03
          max. resid. norm for Fia-block=  2.005D-04 for orbital     29a         
          max. resid. fock norm         =  2.408D-04 for orbital     30a         
          irrep a   : virtual orbitals shifted by    0.05322
          mo-orthogonalization: Cholesky decomposition

 ITERATION  ENERGY          1e-ENERGY        2e-ENERGY     RMS[dD(SAO)]   TOL
  11  -1151.8746217700    -2203.8681640     739.72146436    0.411D-04 0.669D-11
                            Exc = -58.3555574110      Eck =  798.077021772    
                              N = 57.999542237    
                            current damping = 0.400
 
          Norm of current diis error: 0.58058E-03
          max. resid. norm for Fia-block=  1.530D-04 for orbital     29a         
          max. resid. fock norm         =  1.729D-04 for orbital     30a         
          irrep a   : virtual orbitals shifted by    0.05769

 ITERATION  ENERGY          1e-ENERGY        2e-ENERGY     RMS[dD(SAO)]   TOL
  12  -1151.8746228549    -2203.8673924     739.72069172    0.312D-04 0.626D-11
                            Exc = -58.3554652421      Eck =  798.076156962    
                              N = 57.999542498    
                            current damping = 0.250
 
          Norm of current diis error: 0.55563E-03
          max. resid. norm for Fia-block=  1.666D-04 for orbital     29a         
          max. resid. fock norm         =  1.784D-04 for orbital     30a         
          irrep a   : virtual orbitals shifted by    0.06212

 ITERATION  ENERGY          1e-ENERGY        2e-ENERGY     RMS[dD(SAO)]   TOL
  13  -1151.8746239788    -2203.8672854     739.72058359    0.325D-04 0.587D-11
                            Exc = -58.3555380537      Eck =  798.076121645    
                              N = 57.999542735    
                            current damping = 0.100
 
          Norm of current diis error: 0.52688E-03
          max. resid. norm for Fia-block=  1.557D-04 for orbital     29a         
          max. resid. fock norm         =  1.615D-04 for orbital     30a         
          irrep a   : virtual orbitals shifted by    0.06663

 ITERATION  ENERGY          1e-ENERGY        2e-ENERGY     RMS[dD(SAO)]   TOL
  14  -1151.8746250217    -2203.8671475     739.72044462    0.303D-04 0.555D-11
                            Exc = -58.3554667849      Eck =  798.075911403    
                              N = 57.999542997    
                            current damping = 0.050
 
          Norm of current diis error: 0.53686E-03
          max. resid. norm for Fia-block=  1.304D-04 for orbital     29a         
          max. resid. fock norm         =  1.330D-04 for orbital     30a         
          irrep a   : virtual orbitals shifted by    0.06812

 ITERATION  ENERGY          1e-ENERGY        2e-ENERGY     RMS[dD(SAO)]   TOL
  15  -1151.8746258937    -2203.8658435     739.71913980    0.252D-04 0.531D-11
                            Exc = -58.3554840141      Eck =  798.074623810    
                              N = 57.999543201    
                            current damping = 0.050
 
          Norm of current diis error: 0.54000E-03
          max. resid. norm for Fia-block=  1.189D-04 for orbital     29a         
          max. resid. fock norm         =  1.207D-04 for orbital     30a         
          irrep a   : virtual orbitals shifted by    0.06808
          mo-orthogonalization: Cholesky decomposition

 ITERATION  ENERGY          1e-ENERGY        2e-ENERGY     RMS[dD(SAO)]   TOL
  16  -1151.8746266941    -2203.8661903     739.71948582    0.228D-04 0.511D-11
                            Exc = -58.3554676380      Eck =  798.074953455    
                              N = 57.999543391    
                            current damping = 0.100
 
          Norm of current diis error: 0.54213E-03
          max. resid. norm for Fia-block=  1.076D-04 for orbital     29a         
          max. resid. fock norm         =  1.083D-04 for orbital     30a         
          irrep a   : virtual orbitals shifted by    0.06654

 ITERATION  ENERGY          1e-ENERGY        2e-ENERGY     RMS[dD(SAO)]   TOL
  17  -1151.8746274228    -2203.8653187     739.71861346    0.206D-04 0.495D-11
                            Exc = -58.3554429951      Eck =  798.074056458    
                              N = 57.999543565    
                            current damping = 0.150
 
          Norm of current diis error: 0.55010E-03
          max. resid. norm for Fia-block=  1.179D-04 for orbital     29a         
          max. resid. fock norm         =  1.186D-04 for orbital     30a         
          irrep a   : virtual orbitals shifted by    0.06498

 ITERATION  ENERGY          1e-ENERGY        2e-ENERGY     RMS[dD(SAO)]   TOL
  18  -1151.8746282273    -2203.8653265     739.71862040    0.224D-04 0.480D-11
                            Exc = -58.3554654977      Eck =  798.074085894    
                              N = 57.999543743    
                            current damping = 0.200
 
          Norm of current diis error: 0.55548E-03
          max. resid. norm for Fia-block=  1.311D-04 for orbital     29a         
          max. resid. fock norm         =  1.320D-04 for orbital     29a         
          irrep a   : virtual orbitals shifted by    0.06341

 ITERATION  ENERGY          1e-ENERGY        2e-ENERGY     RMS[dD(SAO)]   TOL
  19  -1151.8746291352    -2203.8652311     739.71852415    0.249D-04 0.465D-11
                            Exc = -58.3554264413      Eck =  798.073950590    
                              N = 57.999543955    
                            current damping = 0.250
 
          Norm of current diis error: 0.55934E-03
          max. resid. norm for Fia-block=  1.387D-04 for orbital     29a         
          max. resid. fock norm         =  1.395D-04 for orbital     29a         
          irrep a   : virtual orbitals shifted by    0.06185

 ITERATION  ENERGY          1e-ENERGY        2e-ENERGY     RMS[dD(SAO)]   TOL
  20  -1151.8746301059    -2203.8644279     739.71771992    0.262D-04 0.451D-11
                            Exc = -58.3554425260      Eck =  798.073162448    
                              N = 57.999544169    
                            current damping = 0.100
 
          Norm of current diis error: 0.57007E-03
          max. resid. norm for Fia-block=  1.320D-04 for orbital     29a         
          max. resid. fock norm         =  1.326D-04 for orbital     29a         
          irrep a   : virtual orbitals shifted by    0.06640
          mo-orthogonalization: Cholesky decomposition

 ITERATION  ENERGY          1e-ENERGY        2e-ENERGY     RMS[dD(SAO)]   TOL
  21  -1151.8746310479    -2203.8644856     739.71777668    0.251D-04 0.439D-11
                            Exc = -58.3554079665      Eck =  798.073184643    
                              N = 57.999544385    
                            current damping = 0.150
 
          Norm of current diis error: 0.57254E-03
          max. resid. norm for Fia-block=  1.333D-04 for orbital     29a         
          max. resid. fock norm         =  1.338D-04 for orbital     29a         
          irrep a   : virtual orbitals shifted by    0.06484

 ITERATION  ENERGY          1e-ENERGY        2e-ENERGY     RMS[dD(SAO)]   TOL
  22  -1151.8746320034    -2203.8635785     739.71686866    0.253D-04 0.287D-10
                            Exc = -58.3554023633     Coul =  816.787750410    
                            exK = -18.7154793823    
                              N = 57.999544595    
                            current damping = 0.200
 
          Norm of current diis error: 0.58295E-03
          max. resid. norm for Fia-block=  1.274D-04 for orbital     29a         
          max. resid. fock norm         =  1.279D-04 for orbital     29a         
          irrep a   : virtual orbitals shifted by    0.06329

 ITERATION  ENERGY          1e-ENERGY        2e-ENERGY     RMS[dD(SAO)]   TOL
  23  -1151.8746329360    -2203.8633520     739.71664127    0.242D-04 0.182D-10
                            Exc = -58.3553848371      Eck =  798.072026104    
                              N = 57.999544801    
                            current damping = 0.050
 
          Norm of current diis error: 0.59577E-03
          max. resid. norm for Fia-block=  1.251D-04 for orbital     29a         
          max. resid. fock norm         =  1.257D-04 for orbital     29a         
          irrep a   : virtual orbitals shifted by    0.06784

 ITERATION  ENERGY          1e-ENERGY        2e-ENERGY     RMS[dD(SAO)]   TOL
  24  -1151.8746338648    -2203.8629703     739.71625857    0.237D-04 0.122D-10
                            Exc = -58.3553630323      Eck =  798.071621602    
                              N = 57.999545001    
                            current damping = 0.050
 
          Norm of current diis error: 0.59927E-03
          max. resid. norm for Fia-block=  1.393D-04 for orbital     29a         
          max. resid. fock norm         =  1.401D-04 for orbital     29a         
          irrep a   : virtual orbitals shifted by    0.06781

 ITERATION  ENERGY          1e-ENERGY        2e-ENERGY     RMS[dD(SAO)]   TOL
  25  -1151.8746349112    -2203.8625764     739.71586363    0.264D-04 0.955D-11
                            Exc = -58.3553781321      Eck =  798.071241759    
                              N = 57.999545216    
                            current damping = 0.050
 
          Norm of current diis error: 0.60881E-03
          max. resid. norm for Fia-block=  1.446D-04 for orbital     29a         
          max. resid. fock norm         =  1.453D-04 for orbital     29a         
          irrep a   : virtual orbitals shifted by    0.06777
          mo-orthogonalization: Cholesky decomposition

 ITERATION  ENERGY          1e-ENERGY        2e-ENERGY     RMS[dD(SAO)]   TOL
  26  -1151.8746360139    -2203.8624005     739.71568671    0.275D-04 0.801D-11
                            Exc = -58.3553313911      Eck =  798.071018099    
                              N = 57.999545454    
                            current damping = 0.050
 
          Norm of current diis error: 0.61535E-03
          max. resid. norm for Fia-block=  1.497D-04 for orbital     29a         
          max. resid. fock norm         =  1.504D-04 for orbital     29a         
          irrep a   : virtual orbitals shifted by    0.06774

 ITERATION  ENERGY          1e-ENERGY        2e-ENERGY     RMS[dD(SAO)]   TOL
  27  -1151.8746371689    -2203.8614965     739.71478154    0.284D-04 0.717D-11
                            Exc = -58.3553524211      Eck =  798.070133964    
                              N = 57.999545685    
                            current damping = 0.050
 
          Norm of current diis error: 0.62933E-03
          max. resid. norm for Fia-block=  1.360D-04 for orbital     29a         
          max. resid. fock norm         =  1.363D-04 for orbital     29a         
          irrep a   : virtual orbitals shifted by    0.06771

 ITERATION  ENERGY          1e-ENERGY        2e-ENERGY     RMS[dD(SAO)]   TOL
  28  -1151.8746382336    -2203.8612522     739.71453613    0.259D-04 0.659D-11
                            Exc = -58.3553001978      Eck =  798.069836329    
                              N = 57.999545912    
                            current damping = 0.050
 
          Norm of current diis error: 0.63531E-03
          max. resid. norm for Fia-block=  1.360D-04 for orbital     29a         
          max. resid. fock norm         =  1.365D-04 for orbital     29a         
          irrep a   : virtual orbitals shifted by    0.06768

 ITERATION  ENERGY          1e-ENERGY        2e-ENERGY     RMS[dD(SAO)]   TOL
  29  -1151.8746393086    -2203.8605019     739.71378476    0.258D-04 0.614D-11
                            Exc = -58.3552970099      Eck =  798.069081770    
                              N = 57.999546125    
                            current damping = 0.050
 
          Norm of current diis error: 0.64130E-03
          max. resid. norm for Fia-block=  1.426D-04 for orbital     29a         
          max. resid. fock norm         =  1.433D-04 for orbital     29a         
          irrep a   : virtual orbitals shifted by    0.06764

 ITERATION  ENERGY          1e-ENERGY        2e-ENERGY     RMS[dD(SAO)]   TOL
  30  -1151.8746404495    -2203.8602763     739.71355802    0.271D-04 0.576D-11
                            Exc = -58.3552857652      Eck =  798.068843783    
                              N = 57.999546350    
                            current damping = 0.050
 
          Norm of current diis error: 0.64729E-03
          max. resid. norm for Fia-block=  1.599D-04 for orbital     29a         
          max. resid. fock norm         =  1.608D-04 for orbital     29a         
          irrep a   : virtual orbitals shifted by    0.06759
          mo-orthogonalization: Cholesky decomposition

 End of SCF iterations

   convergence criteria cannot be satisfied within   30 iterations !


                  ------------------------------------------ 
                 |  total energy      =  -1151.87464044949  |
                  ------------------------------------------ 
                 :  kinetic energy    =   1147.67564854875  :
                 :  potential energy  =  -2299.55028899824  :
                 :  virial theorem    =      1.99635464507  :
                 :  wavefunction norm =      1.00000000000  :
                  .......................................... 


 ATTENTION : $energy will not be updated since 
 this calculation did not converge (sob) 

 A POSSIBLE REASON MAY BE THAT ...
 - THE GEOMETRY IS FAR FROM BEING REASONABLE

    irrep                 25a         26a         27a         28a         29a   
 eigenvalues H         -0.34710    -0.33223    -0.32177    -0.25648    -0.23368
            eV          -9.4452     -9.0406     -8.7558     -6.9791     -6.3588
 occupation              2.0000      2.0000      2.0000      2.0000      2.0000 

    irrep                 30a         31a         32a         33a         34a   
 eigenvalues H         -0.20281    -0.04472    -0.03548    -0.02161     0.00094
            eV          -5.5188     -1.2169     -0.9654     -0.5881      0.0255
 
 
 
 
 ==============================================================================
                           electrostatic moments
 ==============================================================================

 reference point for electrostatic moments:    0.00000   0.00000   0.00000

 
              nuc           elec       ->  total
 ------------------------------------------------------------------------------
                          charge      
 ------------------------------------------------------------------------------
          58.000000     -58.000000       0.000000
 
 ------------------------------------------------------------------------------
                       dipole moment  
 ------------------------------------------------------------------------------
   x       0.445373      -1.635961      -1.190588
   y      -0.634394       1.131033       0.496639
   z      -0.871213      -0.425906      -1.297118
 
   | dipole moment | =     1.8294 a.u. =     4.6498 debye 
 
 ------------------------------------------------------------------------------
                     quadrupole moment
 ------------------------------------------------------------------------------
  xx     173.451686    -199.557350     -26.105664
  yy     161.066183    -187.908378     -26.842195
  zz     184.744718    -208.970041     -24.225324
  xy     -33.148498      33.459247       0.310749
  xz      30.143767     -29.613751       0.530016
  yz      -3.248631       4.856661       1.608029
 
     1/3  trace=     -25.724394
     anisotropy=       3.788510
 
 ==============================================================================
 

 ATTENTION: ridft did not converge! 



    ------------------------------------------------------------------------
         total  cpu-time :  19.74 seconds
         total wall-time :  19.75 seconds
    ------------------------------------------------------------------------

   ****  ridft : all done  ****


    2018-03-07 21:45:11.273 


DIRECT SCF FAILED TO CONVERGE => jobex quits

