[Molden Format]
[Title]
                                                                                
[Atoms] AU
 ti    1   22 0.10144780265308E+00 0.46672146243240E-01 -.77511798294920E-01
 o     2    8 0.64582759378700E+00 -.23807191959809E+01 0.20200491345637E+01
 o     3    8 -.28619480482425E+01 -.78922903961649E+00 -.16420834229049E+01
 h     4    1 -.34377110986171E+01 -.21399910035170E+01 -.87263383419490E+00
 o     5    8 -.87727964279952E+00 0.26224542438088E+01 0.20505318913044E+01
 h     6    1 0.11608872639275E+00 0.30987140349438E+01 0.35160305569029E+01
 o     7    8 0.24146514718645E+01 0.69686149861720E+00 -.24069618799643E+01
 h     8    1 0.43618095125235E+01 0.84701279798725E+00 -.28139061235766E+01
 h     9    1 0.84929420524725E+00 -.26216523385306E+01 0.40071012487513E+01
[GTO]
    1 0
 s    6 1.00
 0.42961512185000E+05 0.17843194150525E-02
 0.64509759169000E+04 0.13666998293913E-01
 0.14677210915000E+04 0.67657531418607E-01
 0.41420997355000E+03 0.23415664474124E+00
 0.13448715840000E+03 0.47131888052172E+00
 0.46122209796000E+02 0.35503505357522E+00
 s    3 1.00
 0.89447762543000E+02 -.10443687268854E+00
 0.10223346060000E+02 0.61711202546388E+00
 0.41353774271000E+01 0.45666537532827E+00
 s    3 1.00
 0.67896181452000E+01 -.21192816449190E+00
 0.11106730691000E+01 0.68918538471225E+00
 0.47565975578000E+00 0.43416009293305E+00
 s    1 1.00
 0.65986956934000E-01 0.10000000000000E+01
 s    1 1.00
 0.25210342250000E-01 0.10000000000000E+01
 p    5 1.00
 0.52203684782000E+03 0.95451019665738E-02
 0.12268649489000E+03 0.69873133119453E-01
 0.38572903611000E+02 0.26415737257776E+00
 0.13672169319000E+02 0.50888293752065E+00
 0.50118529359000E+01 0.33394126738673E+00
 p    3 1.00
 0.24131928282000E+01 0.32564830898490E+00
 0.93252270050000E+00 0.56003132938245E+00
 0.35429058390000E+00 0.23042934995196E+00
 p    1 1.00
 0.10156100000000E+00 0.10000000000000E+01
 d    4 1.00
 0.23465125957000E+02 0.32308575502655E-01
 0.63332593832000E+01 0.16797459661068E+00
 0.20766489946000E+01 0.42993853242019E+00
 0.69027361954000E+00 0.59228850253611E+00
 d    1 1.00
 0.21088738554000E+00 0.10000000000000E+01
 f    1 1.00
 0.56200000000000E+00 0.10000000000000E+01
 
    2 0
 s    5 1.00
 0.22661767785000E+04 -.53893503921743E-02
 0.34087010191000E+03 -.40234721388960E-01
 0.77363135167000E+02 -.18008184205526E+00
 0.21479644940000E+02 -.46828857657651E+00
 0.66589433124000E+01 -.44692617160187E+00
 s    1 1.00
 0.80975975668000E+00 0.10000000000000E+01
 s    1 1.00
 0.25530772234000E+00 0.10000000000000E+01
 p    3 1.00
 0.17721504317000E+02 0.62630248763161E-01
 0.38635505440000E+01 0.33331138482352E+00
 0.10480920883000E+01 0.74148638308122E+00
 p    1 1.00
 0.27641544411000E+00 0.10000000000000E+01
 d    1 1.00
 0.12000000000000E+01 0.10000000000000E+01
 
    3 0
 s    5 1.00
 0.22661767785000E+04 -.53893503921743E-02
 0.34087010191000E+03 -.40234721388960E-01
 0.77363135167000E+02 -.18008184205526E+00
 0.21479644940000E+02 -.46828857657651E+00
 0.66589433124000E+01 -.44692617160187E+00
 s    1 1.00
 0.80975975668000E+00 0.10000000000000E+01
 s    1 1.00
 0.25530772234000E+00 0.10000000000000E+01
 p    3 1.00
 0.17721504317000E+02 0.62630248763161E-01
 0.38635505440000E+01 0.33331138482352E+00
 0.10480920883000E+01 0.74148638308122E+00
 p    1 1.00
 0.27641544411000E+00 0.10000000000000E+01
 d    1 1.00
 0.12000000000000E+01 0.10000000000000E+01
 
    4 0
 s    3 1.00
 0.13010701000000E+02 0.33485484812989E-01
 0.19622572000000E+01 0.23472187088125E+00
 0.44453796000000E+00 0.81377028525955E+00
 s    1 1.00
 0.12194962000000E+00 0.10000000000000E+01
 p    1 1.00
 0.80000000000000E+00 0.10000000000000E+01
 
    5 0
 s    5 1.00
 0.22661767785000E+04 -.53893503921743E-02
 0.34087010191000E+03 -.40234721388960E-01
 0.77363135167000E+02 -.18008184205526E+00
 0.21479644940000E+02 -.46828857657651E+00
 0.66589433124000E+01 -.44692617160187E+00
 s    1 1.00
 0.80975975668000E+00 0.10000000000000E+01
 s    1 1.00
 0.25530772234000E+00 0.10000000000000E+01
 p    3 1.00
 0.17721504317000E+02 0.62630248763161E-01
 0.38635505440000E+01 0.33331138482352E+00
 0.10480920883000E+01 0.74148638308122E+00
 p    1 1.00
 0.27641544411000E+00 0.10000000000000E+01
 d    1 1.00
 0.12000000000000E+01 0.10000000000000E+01
 
    6 0
 s    3 1.00
 0.13010701000000E+02 0.33485484812989E-01
 0.19622572000000E+01 0.23472187088125E+00
 0.44453796000000E+00 0.81377028525955E+00
 s    1 1.00
 0.12194962000000E+00 0.10000000000000E+01
 p    1 1.00
 0.80000000000000E+00 0.10000000000000E+01
 
    7 0
 s    5 1.00
 0.22661767785000E+04 -.53893503921743E-02
 0.34087010191000E+03 -.40234721388960E-01
 0.77363135167000E+02 -.18008184205526E+00
 0.21479644940000E+02 -.46828857657651E+00
 0.66589433124000E+01 -.44692617160187E+00
 s    1 1.00
 0.80975975668000E+00 0.10000000000000E+01
 s    1 1.00
 0.25530772234000E+00 0.10000000000000E+01
 p    3 1.00
 0.17721504317000E+02 0.62630248763161E-01
 0.38635505440000E+01 0.33331138482352E+00
 0.10480920883000E+01 0.74148638308122E+00
 p    1 1.00
 0.27641544411000E+00 0.10000000000000E+01
 d    1 1.00
 0.12000000000000E+01 0.10000000000000E+01
 
    8 0
 s    3 1.00
 0.13010701000000E+02 0.33485484812989E-01
 0.19622572000000E+01 0.23472187088125E+00
 0.44453796000000E+00 0.81377028525955E+00
 s    1 1.00
 0.12194962000000E+00 0.10000000000000E+01
 p    1 1.00
 0.80000000000000E+00 0.10000000000000E+01
 
    9 0
 s    3 1.00
 0.13010701000000E+02 0.33485484812989E-01
 0.19622572000000E+01 0.23472187088125E+00
 0.44453796000000E+00 0.81377028525955E+00
 s    1 1.00
 0.12194962000000E+00 0.10000000000000E+01
 p    1 1.00
 0.80000000000000E+00 0.10000000000000E+01
 
[MO]
 Sym=     1a   
 Ene= -.17915427275117E+03
 Spin= Alpha
 Occup= 2.000000
     1 0.99571705355874E+00
     2 0.14116986883508E-01
     3 -.32530971409591E-02
     4 0.68649038314650E-03
     5 -.33787812689788E-03
     6 0.89681769406152E-05
     7 -.11840160973991E-04
     8 0.75639812421844E-06
     9 -.29512795015248E-04
    10 0.44683582686436E-04
    11 -.93330425144611E-05
    12 -.32014470729415E-03
    13 0.82942007050623E-04
    14 0.82299652679503E-04
    15 -.29836469385903E-05
    16 0.62429892103261E-05
    17 -.32593422717358E-05
    18 -.47054172829032E-05
    19 0.39538497689232E-05
    20 0.61899009300018E-05
    21 0.53886534445104E-04
    22 -.21894503220878E-04
    23 -.31992031224225E-04
    24 0.13989690980171E-04
    25 0.85826361664017E-04
    26 0.83532333291145E-04
    27 0.43178594070088E-05
    28 0.50764950601735E-05
    29 0.62585125391652E-05
    30 0.33111031885276E-05
    31 -.58104287315337E-05
    32 0.91455605831091E-07
    33 -.91041194793428E-05
    34 -.10004040936602E-05
    35 -.84881312911960E-05
    36 0.39206806490739E-05
    37 -.21617922208859E-04
    38 -.14629656146903E-03
    39 0.79851326032248E-04
    40 0.11150715984958E-04
    41 -.89359472329489E-04
    42 0.88031336479524E-04
    43 -.83134181412860E-04
    44 0.32635595939282E-03
    45 -.49960927108637E-03
    46 -.63902062560363E-05
    47 0.35384085287662E-04
    48 -.28993879031625E-04
    49 -.10656521390527E-04
    50 -.28251960624373E-05
    51 -.31805518147412E-04
    52 -.11149661857145E-04
    53 -.72672789400708E-04
    54 -.13981526988099E-04
    55 -.84979984864835E-04
    56 -.25181519448613E-04
    57 -.29016913556369E-04
    58 0.10681615233996E-03
    59 -.71089000947947E-04
    60 0.84969054470546E-04
    61 -.13762290291106E-05
    62 -.57353988930188E-06
    63 0.19497689184125E-05
    64 0.37710139091880E-05
    65 0.13968852023977E-04
    66 -.17620858377388E-04
    67 -.73932072921696E-04
    68 -.14013575814241E-03
    69 -.10359192826432E-03
    70 -.42554274058978E-04
    71 -.37295725449485E-04
    72 -.11711479752665E-04
    73 -.63712982317603E-04
    74 -.96346982295754E-04
    75 -.39832182556528E-04
    76 0.64418641624907E-04
    77 0.59450465395066E-04
    78 0.78058001317256E-04
    79 -.14598411581254E-03
    80 -.15910385703316E-03
    81 -.43055012050937E-05
    82 0.10040700654078E-04
    83 -.57351994489846E-05
    84 -.14097443130050E-04
    85 -.12940372055628E-04
    86 0.11188370926959E-04
    87 0.77408177314554E-04
    88 -.26432645027703E-04
    89 -.62895022504119E-04
    90 0.48588849414810E-04
    91 0.85601376354611E-05
    92 -.23451114571662E-04
    93 -.15791126685866E-03
    94 0.15086500387144E-03
    95 0.98428607069296E-04
    96 0.28201659939575E-04
    97 -.96535369414285E-04
    98 -.53125083466091E-03
    99 -.11371844098668E-03
   100 0.35313679630231E-03
   101 -.24855969349600E-04
   102 -.68502003855019E-06
   103 0.25540989388150E-04
   104 -.15326140713665E-06
   105 -.25007246631425E-04
   106 -.79329008060785E-05
   107 0.23533917074220E-03
   108 0.16147536936459E-03
   109 -.12635615158400E-03
   110 -.75474985407973E-05
   111 -.22071018548151E-04
   112 0.24336710086270E-03
   113 0.10257899047534E-03
   114 -.18297767365121E-04
   115 -.51432290966699E-04
   116 -.10573399158940E-03
 Sym=     2a   
 Ene= -.20057938849374E+02
 Spin= Alpha
 Occup= 2.000000
     1 -.32604143002578E+00
     2 0.10406300695370E+01
     3 0.20695747254389E-01
     4 -.16115917199737E-02
     5 0.98399289905444E-03
     6 0.48470167728229E-04
     7 -.47165415922890E-04
     8 -.56730078532564E-04
     9 0.12794995675791E-03
    10 -.18556222469695E-03
    11 0.33514317508140E-04
    12 0.10445733039942E-02
    13 -.32987465198258E-03
    14 -.19816787071854E-03
    15 -.37756866417038E-06
    16 -.27286320879893E-05
    17 0.31062007521597E-05
    18 0.73560809681539E-05
    19 0.91428893515199E-05
    20 -.33155719796664E-04
    21 -.20646971593203E-03
    22 0.21930199129270E-04
    23 0.18453951680276E-03
    24 -.37041126443506E-04
    25 -.39070150746734E-03
    26 -.32341004401750E-03
    27 -.25300694773203E-04
    28 -.19236797928305E-04
    29 -.22083064993360E-04
    30 -.17340757793801E-04
    31 0.21880306787983E-04
    32 -.51568693276623E-04
    33 0.51285201828315E-04
    34 0.39285659142872E-05
    35 0.81196233962642E-04
    36 -.50115835699071E-04
    37 0.30502103874705E-04
    38 0.68784963153001E-03
    39 -.93732089007962E-03
    40 -.41425884745698E-04
    41 0.28413132369209E-03
    42 -.28898756247382E-03
    43 0.38802010611527E-03
    44 -.14294113903653E-02
    45 0.19003612784733E-02
    46 0.69560206654889E-04
    47 -.14192902990360E-03
    48 0.72368823248711E-04
    49 0.57712853857161E-04
    50 -.11246151663079E-04
    51 0.18025253326846E-03
    52 0.17599815227843E-04
    53 0.46933959768569E-03
    54 -.46713545217039E-03
    55 0.31410463778795E-03
    56 0.99822115937267E-04
    57 0.11219957573502E-03
    58 -.64965082800131E-03
    59 0.18812013816736E-03
    60 -.49092986808204E-03
    61 -.28948864606317E-04
    62 0.25641425887295E-04
    63 0.33074387190230E-05
    64 -.38950239210783E-04
    65 -.90097754036245E-04
    66 0.53891244543352E-04
    67 0.33978312520592E-03
    68 0.42033332871877E-03
    69 0.39201035613494E-03
    70 0.15727933064936E-03
    71 0.14158259763641E-03
    72 0.19348131629873E-04
    73 0.44374620822753E-03
    74 -.24564500167253E-03
    75 0.13154903275819E-03
    76 -.24610705994865E-03
    77 -.22280000957459E-03
    78 -.36066552743379E-03
    79 0.82364041526159E-03
    80 0.73526604082290E-03
    81 0.40602949590113E-04
    82 -.54816131001602E-04
    83 0.14213181411489E-04
    84 0.70648291285615E-04
    85 0.53413912177980E-04
    86 -.90710338529519E-04
    87 -.22077211218670E-03
    88 0.50579846556275E-04
    89 0.22392269057657E-03
    90 -.20792935842713E-03
    91 -.55137919053059E-04
    92 0.32987439061442E-04
    93 0.71217073838404E-03
    94 -.11078081825699E-02
    95 -.33723814689694E-03
    96 -.94814441164010E-04
    97 0.31638755007906E-03
    98 0.21608888223505E-02
    99 0.47865615663204E-03
   100 -.14991810571047E-02
   101 0.57273570984950E-04
   102 0.44283165115884E-04
   103 -.10155673610083E-03
   104 -.20720462991714E-04
   105 0.15628422632299E-03
   106 0.46071796687075E-04
   107 -.84550522264773E-03
   108 -.58726402740293E-03
   109 0.41421630202352E-03
   110 0.19097147774730E-04
   111 0.98894576820274E-04
   112 -.78554199661339E-03
   113 -.38589560357291E-03
   114 0.44967436118123E-04
   115 0.20391084834726E-03
   116 0.31334845099072E-03
 Sym=     3a   
 Ene= -.19223163229204E+02
 Spin= Alpha
 Occup= 2.000000
     1 -.39466650942070E-04
     2 0.16701481298493E-03
     3 -.23879709436352E-03
     4 -.78798194194783E-02
     5 0.14237630445038E-02
     6 0.39509414549140E-04
     7 -.14086706725849E-03
     8 0.11656422708281E-03
     9 -.20494539454385E-03
    10 0.69903781014964E-03
    11 -.58129862838780E-03
    12 0.43129920870908E-03
    13 0.53065353483686E-02
    14 -.50908881913238E-02
    15 0.45490191991056E-05
    16 0.62497481941398E-05
    17 -.10798767393245E-04
    18 0.35715528993877E-04
    19 0.81063454140069E-05
    20 0.32461473190474E-04
    21 0.60753601951143E-03
    22 -.51128457605847E-03
    23 -.96251443452955E-04
    24 0.17409530425238E-03
    25 -.43841410180086E-03
    26 0.97116087251032E-03
    27 -.58231605742839E-04
    28 -.92539400018976E-05
    29 -.74231820592087E-04
    30 0.35148563839247E-04
    31 0.11276655097660E-03
    32 -.52757020982780E-04
    33 0.42977333488726E-04
    34 -.10035108763423E-03
    35 0.15234945914527E-03
    36 -.50717297788574E-04
    37 0.98896569340808E+00
    38 -.39871787332463E-01
    39 0.22564786019125E-01
    40 -.11546108703685E-03
    41 -.77076363681916E-03
    42 -.95243583841198E-03
    43 -.90651737317909E-03
    44 0.31969065492509E-02
    45 -.28198008543432E-02
    46 0.23524074244743E-03
    47 0.26122545346383E-03
    48 -.49646619591126E-03
    49 0.14000879003840E-04
    50 -.16007402751323E-03
    51 0.12676397988360E-03
    52 0.16910701203032E-03
    53 -.26087176943854E-03
    54 0.81519223783760E-03
    55 -.78855163881497E-04
    56 0.87220157963299E-05
    57 -.11123972115776E-03
    58 0.17995866322158E-03
    59 -.51695739030256E-03
    60 0.69723003403012E-03
    61 -.17235923695604E-04
    62 0.18513884426028E-04
    63 -.12779607304231E-05
    64 -.57862263313644E-06
    65 0.58080630810635E-05
    66 -.45526500502154E-04
    67 -.35305298936990E-03
    68 0.11723517221194E-02
    69 0.14637077576440E-03
    70 -.11280456119541E-03
    71 0.21056911674177E-03
    72 0.36554910427483E-03
    73 -.32049151490473E-03
    74 0.60812284400041E-03
    75 0.57948341361172E-04
    76 0.17171416125449E-03
    77 -.90912368136802E-04
    78 -.24617283456629E-03
    79 -.79848221495752E-03
    80 0.51643230812781E-03
    81 -.16863615756195E-04
    82 0.46585860963315E-04
    83 -.29722245207120E-04
    84 -.10692193485306E-04
    85 0.47399058264366E-05
    86 -.36103407819546E-04
    87 -.13987123182584E-03
    88 0.89153039282377E-03
    89 0.11249301519972E-03
    90 -.98251838797036E-04
    91 -.13505258953781E-03
    92 0.22213422014433E-03
    93 0.61156740013636E-04
    94 -.10551057503026E-02
    95 -.62164158745737E-04
    96 0.19020793553663E-03
    97 -.11651417975884E-03
    98 0.61901237324961E-03
    99 -.52572667001114E-03
   100 0.16900289267745E-04
   101 0.95858103491626E-05
   102 0.10625747311654E-04
   103 -.20211557660816E-04
   104 -.38825332695968E-04
   105 0.23378575492125E-04
   106 -.85689360622891E-05
   107 -.15189793724288E-03
   108 0.10898188080086E-03
   109 -.50751966142491E-05
   110 0.65531088755159E-04
   111 -.10151571396718E-04
   112 0.13384755075940E-02
   113 -.80942891645306E-03
   114 -.46103763069602E-03
   115 0.63650985065789E-04
   116 -.26237675802774E-02
 Sym=     4a   
 Ene= -.19208096640311E+02
 Spin= Alpha
 Occup= 2.000000
     1 -.45349266194466E-04
     2 0.17573834605719E-03
     3 -.32783621356013E-03
     4 -.58050246208378E-02
     5 0.22209445637490E-02
     6 0.11753287851053E-03
     7 0.36326872341437E-04
     8 -.11823499144122E-03
     9 -.57190738325063E-03
    10 -.17385344802197E-03
    11 0.56046283249948E-03
    12 -.44586905095577E-02
    13 -.16145229476744E-02
    14 0.61154149757501E-02
    15 0.84494146420388E-05
    16 -.76729626034942E-05
    17 -.77645203854467E-06
    18 -.42634272669121E-05
    19 0.39601002061801E-04
    20 0.18104141172738E-04
    21 -.56547364962020E-03
    22 0.84135588392100E-03
    23 -.27588223430080E-03
    24 -.42712798513661E-03
    25 0.10372472358203E-02
    26 0.11826670215378E-03
    27 -.34541014546184E-04
    28 -.47830027202310E-04
    29 0.97340570868783E-06
    30 -.61684385154357E-04
    31 0.44917784498160E-04
    32 -.84829919131280E-04
    33 0.10802601907660E-03
    34 0.19252930815857E-04
    35 0.83523958330692E-04
    36 -.57102058058394E-04
    37 -.22734673275401E-03
    38 0.13272863486587E-03
    39 -.13287867018954E-02
    40 -.19234954574490E-03
    41 0.17988522341893E-04
    42 0.11913543059615E-03
    43 0.78754199442825E-03
    44 -.56159941767359E-03
    45 0.37506166851513E-04
    46 0.49711754151950E-04
    47 -.17833802345352E-04
    48 -.31877951806598E-04
    49 -.60037656784017E-05
    50 -.23162739027824E-04
    51 0.28549460684302E-04
    52 0.85374924439182E-03
    53 -.45895162823125E-03
    54 0.98692225583237E-03
    55 -.12111200250606E-03
    56 0.38572090221087E-05
    57 0.18981515632364E-03
    58 0.57633646396196E-03
    59 0.35734749276654E-04
    60 -.83044435010743E-03
    61 0.16361901217343E-04
    62 -.10141431967256E-04
    63 -.62204692500861E-05
    64 -.10768430053945E-04
    65 -.33448332583657E-04
    66 -.61462438836660E-05
    67 0.20303555804342E-03
    68 -.81818320375743E-03
    69 -.14465972000932E-03
    70 0.38171419515435E-04
    71 -.12713920797234E-04
    72 -.11516227717986E-04
    73 0.12410945783460E-03
    74 -.83403664010374E-03
    75 -.16580383507262E-03
    76 -.11984170075508E-03
    77 0.14636912005234E-03
    78 0.49565100953044E-03
    79 0.75693013678131E-03
    80 -.18524873888720E-03
    81 0.22332417667835E-04
    82 -.51456361296771E-05
    83 -.17186781538158E-04
    84 0.34428857402792E-04
    85 0.22928471547120E-05
    86 -.18469983017186E-04
    87 -.10293144381197E-04
    88 -.44342397051178E-03
    89 -.50359681178710E-04
    90 -.83631455103525E-05
    91 0.84569852567914E-04
    92 0.98905731965758E+00
    93 -.39356639698357E-01
    94 0.22535260930484E-01
    95 -.67526801813282E-03
    96 0.55206064197945E-04
    97 -.62761923009581E-03
    98 -.26345420675538E-02
    99 -.77736092278989E-03
   100 0.28643735119723E-02
   101 -.35198168439489E-03
   102 0.16553588471561E-03
   103 0.18644579967927E-03
   104 -.64609578338429E-04
   105 0.11854795519694E-03
   106 0.57954405496681E-05
   107 0.83020361622984E-03
   108 -.14503361225366E-02
   109 -.20510689158404E-02
   110 -.19940175484104E-03
   111 0.16996048242931E-03
   112 0.23490359828655E-03
   113 -.83882781006683E-03
   114 -.69503567307113E-04
   115 -.29293563804753E-04
   116 0.31826734619986E-04
 Sym=     5a   
 Ene= -.19188332937914E+02
 Spin= Alpha
 Occup= 2.000000
     1 -.23230029813462E-04
     2 0.14559632113170E-03
     3 0.96716405918580E-04
     4 -.73978966768987E-02
     5 0.14163183604847E-02
     6 -.38518129387858E-04
     7 0.12492463977067E-03
     8 0.92621388358302E-04
     9 0.16256005891175E-03
    10 -.57874367499482E-03
    11 -.42267268849600E-03
    12 0.35484368229324E-02
    13 -.40292927167928E-02
    14 -.48212814504498E-02
    15 0.27526685883383E-04
    16 -.27635930880636E-04
    17 0.10924499725336E-06
    18 -.27748653231778E-06
    19 0.36485083838640E-04
    20 -.44059887565316E-04
    21 0.52122649231820E-03
    22 -.44536151527697E-03
    23 -.75864977041238E-04
    24 0.64613861505613E-03
    25 0.15680453684615E-03
    26 -.11686071438406E-02
    27 0.28477843059986E-04
    28 -.25070656872473E-04
    29 -.33986696954431E-04
    30 -.46184912615969E-04
    31 -.12357270432589E-04
    32 0.95460007428418E-05
    33 0.79778768551492E-05
    34 0.45993086237042E-04
    35 0.36051938089634E-04
    36 -.19725418614783E-04
    37 -.42734883950118E-03
    38 -.38652696591760E-03
    39 0.94051926165757E-03
    40 0.11473591535244E-03
    41 -.12098542313372E-03
    42 -.82635965453808E-04
    43 -.46467677541029E-03
    44 0.63997519171627E-03
    45 0.62743997632563E-03
    46 -.32621435851692E-04
    47 0.25755401142323E-04
    48 0.68660347093681E-05
    49 -.21498385877876E-04
    50 -.52554129013207E-05
    51 0.13856674308948E-04
    52 0.27002632302312E-02
    53 -.60126301126520E-03
    54 0.11478490569039E-02
    55 0.26464572434913E-04
    56 -.17693060223611E-03
    57 -.15762193879920E-03
    58 -.62711627955152E-04
    59 0.94070973875781E-03
    60 0.72517982404733E-03
    61 -.27196997189687E-04
    62 0.10101554848449E-04
    63 0.17095442341239E-04
    64 0.13197736752833E-04
    65 0.55316840492909E-05
    66 0.46337202963493E-04
    67 -.70635070760003E-04
    68 0.84660582493988E-03
    69 0.54702740369160E-04
    70 0.19716802765458E-04
    71 -.38026256070422E-04
    72 0.98896216078090E+00
    73 -.39999643561841E-01
    74 0.21536973321990E-01
    75 -.15287092204138E-02
    76 0.36439065573087E-03
    77 -.10642777981991E-02
    78 0.68479371525514E-03
    79 -.35292112893757E-02
    80 -.30687616971906E-02
    81 0.29151138508596E-04
    82 0.30727881298673E-03
    83 -.33642995149532E-03
    84 -.20617709994134E-03
    85 -.52221944165801E-03
    86 -.18845534578963E-03
    87 0.22102269462863E-02
    88 -.86350791833385E-03
    89 -.19201092676976E-02
    90 -.58444989912911E-03
    91 -.25812858938575E-02
    92 0.16875294655678E-04
    93 0.13072985255985E-03
    94 -.12775212099721E-02
    95 0.30231527337743E-04
    96 -.18030060108860E-03
    97 -.78094229022001E-04
    98 0.21446705364738E-03
    99 0.61258445405884E-03
   100 -.12247821521092E-03
   101 -.21044511875414E-04
   102 0.39884436837484E-04
   103 -.18839924962070E-04
   104 0.24440637280547E-04
   105 0.72630853058984E-05
   106 0.23189990743696E-05
   107 0.59125393926335E-04
   108 -.16395445849618E-03
   109 -.13607850661631E-04
   110 -.55113284172002E-04
   111 -.12997070688740E-04
   112 -.41727861972913E-03
   113 0.77448716750663E-03
   114 0.45170730649372E-04
   115 0.90892894510486E-04
   116 0.25863927630546E-04
 Sym=     6a   
 Ene= -.19180113049852E+02
 Spin= Alpha
 Occup= 2.000000
     1 -.23629268666095E-04
     2 0.13906784983899E-03
     3 0.59727415428218E-04
     4 -.65632172556212E-02
     5 0.19815382103429E-02
     6 -.12959509277797E-03
     7 -.32578385669337E-04
     8 -.76759699857274E-04
     9 0.59523793048626E-03
    10 0.15640401639379E-03
    11 0.34805625785704E-03
    12 0.58587139406692E-02
    13 0.88034378342383E-03
    14 0.39078585045228E-02
    15 0.13478571457885E-05
    16 0.89284664488644E-07
    17 -.14371418102772E-05
    18 -.18181506437546E-04
    19 -.45168471922235E-04
    20 0.41355644847901E-05
    21 -.11395093147768E-02
    22 0.81964168078793E-03
    23 0.31986763398884E-03
    24 -.61662261817850E-03
    25 -.90819347085663E-03
    26 -.48340002456890E-03
    27 -.22765208145297E-04
    28 0.25108251041036E-04
    29 0.31523813995327E-04
    30 0.38501825018960E-04
    31 -.13988999984030E-04
    32 -.47409084801895E-04
    33 -.79590932580711E-05
    34 -.19697253690301E-04
    35 0.51154501997296E-05
    36 -.24459145474587E-04
    37 -.20077274313824E-03
    38 -.10030278709614E-03
    39 -.54249125959133E-03
    40 0.19598910602027E-03
    41 0.82628791968629E-04
    42 0.39718360012772E-04
    43 -.81021669141739E-03
    44 -.78686579282865E-03
    45 0.16820838890332E-03
    46 0.37616970215983E-04
    47 -.36628440255788E-04
    48 -.98852996019530E-06
    49 0.78197032970451E-05
    50 0.27027971933479E-04
    51 0.18623995464779E-04
    52 0.98892221380822E+00
    53 -.40390000777371E-01
    54 0.21449531000308E-01
    55 -.19093841900502E-03
    56 0.17727888740351E-02
    57 -.16878410841614E-02
    58 0.39660128079450E-02
    59 0.16736998266552E-02
    60 0.16886908996537E-02
    61 0.29718047383175E-03
    62 -.44150407041809E-03
    63 0.14432359658634E-03
    64 -.34258327884947E-03
    65 0.28415676479284E-03
    66 0.50317874363302E-03
    67 0.26803441243420E-02
    68 -.11239001511769E-02
    69 0.94788444522704E-03
    70 0.29251920945406E-02
    71 -.18050886382584E-02
    72 -.27902713171243E-02
    73 -.27420636576716E-03
    74 0.62435396299443E-03
    75 0.16819783062565E-03
    76 0.16007587278214E-05
    77 0.67445210601674E-04
    78 -.89968079636444E-03
    79 0.22273650643532E-04
    80 -.30942829674553E-03
    81 0.77805765292329E-05
    82 -.23399270424741E-05
    83 -.54406494867588E-05
    84 0.31957334693559E-04
    85 0.22498474311884E-04
    86 0.12751652918153E-05
    87 0.31335958874762E-03
    88 -.61237792730232E-03
    89 0.21160414863033E-04
    90 0.46307549134035E-04
    91 0.38366896149976E-05
    92 -.95010564855245E-03
    93 -.41705286546570E-03
    94 0.86617106214922E-03
    95 0.17594368157689E-03
    96 0.27015043049211E-04
    97 0.13684215633609E-03
    98 -.66648526424981E-03
    99 -.14690434949963E-03
   100 -.57641979512357E-03
   101 0.93534933485133E-05
   102 -.14559654159366E-04
   103 0.52061608108523E-05
   104 0.19830603846814E-04
   105 0.25814853808878E-04
   106 0.36052741037296E-05
   107 0.23555522160954E-03
   108 -.48071401147193E-03
   109 0.35030746915924E-04
   110 0.18822731041163E-04
   111 0.44275193230857E-04
   112 0.81863063237418E-04
   113 -.48006816872725E-03
   114 0.10406216569013E-03
   115 0.39215412804825E-04
   116 0.34061145586486E-04
 Sym=     7a   
 Ene= -.16746184138744E+02
 Spin= Alpha
 Occup= 2.000000
     1 0.48717089893052E-04
     2 -.15146763168860E-03
     3 0.28749061304230E-03
     4 0.11513049536362E-02
     5 -.31695938580764E-03
     6 0.37792811604964E+00
     7 -.78810068020204E+00
     8 0.47070545536648E+00
     9 0.80172916316392E-02
    10 -.17028474255060E-01
    11 0.10330493070608E-01
    12 0.20726207486280E-03
    13 -.17937314566249E-02
    14 0.15144869273789E-02
    15 -.29102067320982E-04
    16 0.73530320973191E-05
    17 0.21749035223663E-04
    18 -.58971368649270E-04
    19 0.12307039112329E-04
    20 -.54106039183416E-04
    21 -.11302656274271E-02
    22 0.10145529350052E-02
    23 0.11571269242188E-03
    24 -.34555229753549E-03
    25 0.57024901676788E-03
    26 -.23485011412551E-02
    27 -.73031904600568E-04
    28 -.18211742328374E-05
    29 -.10676584487258E-03
    30 0.90316605044397E-04
    31 0.19457105236739E-03
    32 0.32519043812432E-04
    33 0.76659768834930E-05
    34 -.19212769073730E-03
    35 0.11072236827374E-03
    36 0.15390689703370E-04
    37 0.20333282677221E-03
    38 0.21455880120543E-02
    39 -.68956502991478E-02
    40 -.97058789741938E-04
    41 0.38695719542056E-03
    42 -.43457547707838E-03
    43 0.11164304929254E-02
    44 -.42162383382779E-02
    45 0.46829854584320E-02
    46 0.25367641019816E-03
    47 -.27811020058133E-03
    48 0.24433790383169E-04
    49 0.11776922983289E-03
    50 -.80969581927563E-04
    51 0.50450497095451E-03
    52 -.88230592653927E-04
    53 -.85295239990719E-03
    54 0.23919367253740E-02
    55 -.22053170174114E-03
    56 -.12798210839148E-03
    57 -.89793858824085E-04
    58 0.14676207769680E-02
    59 0.26306107510215E-03
    60 0.93871578751452E-03
    61 0.85557406974049E-04
    62 -.83505872707801E-04
    63 -.20515342662480E-05
    64 0.38306071858794E-04
    65 0.13017463211605E-03
    66 0.10169187203052E-04
    67 -.43577875156600E-03
    68 -.51960118083227E-05
    69 -.27697041711802E-03
    70 -.27850068126016E-04
    71 -.19314653034601E-03
    72 -.96685571658477E-04
    73 -.89453904410879E-03
    74 0.24087708644736E-02
    75 -.75217604627321E-04
    76 0.20767182515713E-03
    77 0.23263570759228E-03
    78 0.50976746974616E-03
    79 -.18169920308521E-02
    80 -.15392256458355E-02
    81 -.43004903441572E-04
    82 0.94220069438868E-04
    83 -.51215165997297E-04
    84 -.10380925000033E-03
    85 -.68378930609546E-04
    86 0.17482575554045E-03
    87 0.14075134962856E-03
    88 0.34464910100294E-03
    89 -.25539124238068E-03
    90 0.23718242527865E-03
    91 -.39216636581020E-04
    92 -.50054567128644E-04
    93 -.46851822171343E-03
    94 0.13659321458491E-02
    95 0.15638536597073E-03
    96 -.88473999032568E-05
    97 -.74410613978583E-04
    98 -.88167754050577E-03
    99 -.59794870321873E-03
   100 0.87234521241291E-03
   101 -.30482121457838E-04
   102 -.33217320057801E-04
   103 0.63699441515640E-04
   104 0.68878026679761E-04
   105 -.77584979964167E-04
   106 -.36413698568185E-04
   107 0.21133099497219E-03
   108 0.26119868854858E-03
   109 -.13599784651778E-03
   110 0.74476423651461E-04
   111 -.64072468835241E-04
   112 -.10452305156921E-02
   113 -.99103789287013E-03
   114 0.39522780821771E-04
   115 0.46303495010014E-03
   116 0.36473519742353E-03
 Sym=     8a   
 Ene= -.16745482542826E+02
 Spin= Alpha
 Occup= 2.000000
     1 -.21623156051347E-04
     2 0.72352642996149E-04
     3 -.37470129297329E-04
     4 -.10504927674538E-03
     5 -.61015339901978E-04
     6 0.40221866524010E+00
     7 0.59983855909428E+00
     8 0.68131674190876E+00
     9 0.84690049473919E-02
    10 0.12618391389076E-01
    11 0.14411088991605E-01
    12 -.22119318753475E-04
    13 0.10664994546706E-04
    14 0.42422291900987E-03
    15 -.20056857596676E-04
    16 0.16609851774436E-04
    17 0.34470058222399E-05
    18 -.22887142131544E-04
    19 -.48434205446533E-05
    20 0.79161222510136E-05
    21 -.12426648416809E-02
    22 0.86619343656585E-03
    23 0.37647140511509E-03
    24 -.91322579330266E-03
    25 -.10787121853485E-02
    26 0.56104741171667E-03
    27 0.11441366854042E-03
    28 -.74728706467171E-04
    29 -.14952218695030E-03
    30 -.12115954200862E-03
    31 0.35351290834748E-04
    32 0.99105838822823E-04
    33 -.32342502238284E-04
    34 0.64907789683985E-04
    35 0.10149922567636E-03