[Molden Format]
[Title]
initial_mdstart                                                                 
[Atoms] AU
 cl    1   17 0.34978755851018E+00 0.28299298287294E+00 0.28494004192214E+01
 o     2    8 0.26546009318781E+01 0.10317782804160E+01 -.23551857422936E+01
 o     3    8 -.74037841210955E+00 -.33074317997460E+01 -.17480265922307E+01
 o     4    8 -.26088687752026E+01 0.16892179781459E+01 -.17554344523355E+01
 h     5    1 0.10756631480496E+01 0.17469648783080E+01 -.27657107224688E+01
 h     6    1 -.17699131159984E+01 0.17163461755387E+01 -.37195513506160E-01
 h     7    1 0.53543027014251E+00 -.20621923923181E+01 -.22821929605900E+01
 h     8    1 -.28874288428311E+01 -.82599774255150E-01 -.18031789191091E+01
 h     9    1 -.56777462021336E+00 -.30209316696292E+01 0.12706813252878E+00
 h    10    1 0.23371063502590E+01 0.10572194801771E+01 -.46615934934777E+00
[GTO]
    1 0
 s    5 1.00
 0.10449827566000E+05 0.54265953789407E-02
 0.15717365221000E+04 0.40626378128836E-01
 0.35712065523000E+03 0.18359747852877E+00
 0.10025185935000E+03 0.47438948768198E+00
 0.30812727554000E+02 0.43735181104122E+00
 s    3 1.00
 0.51923789434000E+02 -.92754154848099E-01
 0.57045760975000E+01 0.56380825544207E+00
 0.23508376809000E+01 0.50367044629712E+00
 s    1 1.00
 0.44605124672000E+00 0.10000000000000E+01
 s    1 1.00
 0.16848856190000E+00 0.10000000000000E+01
 p    5 1.00
 0.30766790569000E+03 -.88797025588865E-02
 0.72102015515000E+02 -.64284071721237E-01
 0.22532680262000E+02 -.24288739736006E+00
 0.78991765444000E+01 -.48340836369878E+00
 0.28767268321000E+01 -.38952563875509E+00
 p    1 1.00
 0.77459363955000E+00 0.10000000000000E+01
 p    1 1.00
 0.21037699698000E+00 0.10000000000000E+01
 d    1 1.00
 0.65000000000000E+00 0.10000000000000E+01
 
    2 0
 s    5 1.00
 0.22661767785000E+04 -.53893503921743E-02
 0.34087010191000E+03 -.40234721388960E-01
 0.77363135167000E+02 -.18008184205526E+00
 0.21479644940000E+02 -.46828857657651E+00
 0.66589433124000E+01 -.44692617160187E+00
 s    1 1.00
 0.80975975668000E+00 0.10000000000000E+01
 s    1 1.00
 0.25530772234000E+00 0.10000000000000E+01
 p    3 1.00
 0.17721504317000E+02 0.62630248763161E-01
 0.38635505440000E+01 0.33331138482352E+00
 0.10480920883000E+01 0.74148638308122E+00
 p    1 1.00
 0.27641544411000E+00 0.10000000000000E+01
 d    1 1.00
 0.12000000000000E+01 0.10000000000000E+01
 
    3 0
 s    5 1.00
 0.22661767785000E+04 -.53893503921743E-02
 0.34087010191000E+03 -.40234721388960E-01
 0.77363135167000E+02 -.18008184205526E+00
 0.21479644940000E+02 -.46828857657651E+00
 0.66589433124000E+01 -.44692617160187E+00
 s    1 1.00
 0.80975975668000E+00 0.10000000000000E+01
 s    1 1.00
 0.25530772234000E+00 0.10000000000000E+01
 p    3 1.00
 0.17721504317000E+02 0.62630248763161E-01
 0.38635505440000E+01 0.33331138482352E+00
 0.10480920883000E+01 0.74148638308122E+00
 p    1 1.00
 0.27641544411000E+00 0.10000000000000E+01
 d    1 1.00
 0.12000000000000E+01 0.10000000000000E+01
 
    4 0
 s    5 1.00
 0.22661767785000E+04 -.53893503921743E-02
 0.34087010191000E+03 -.40234721388960E-01
 0.77363135167000E+02 -.18008184205526E+00
 0.21479644940000E+02 -.46828857657651E+00
 0.66589433124000E+01 -.44692617160187E+00
 s    1 1.00
 0.80975975668000E+00 0.10000000000000E+01
 s    1 1.00
 0.25530772234000E+00 0.10000000000000E+01
 p    3 1.00
 0.17721504317000E+02 0.62630248763161E-01
 0.38635505440000E+01 0.33331138482352E+00
 0.10480920883000E+01 0.74148638308122E+00
 p    1 1.00
 0.27641544411000E+00 0.10000000000000E+01
 d    1 1.00
 0.12000000000000E+01 0.10000000000000E+01
 
    5 0
 s    3 1.00
 0.13010701000000E+02 0.33485484812989E-01
 0.19622572000000E+01 0.23472187088125E+00
 0.44453796000000E+00 0.81377028525955E+00
 s    1 1.00
 0.12194962000000E+00 0.10000000000000E+01
 p    1 1.00
 0.80000000000000E+00 0.10000000000000E+01
 
    6 0
 s    3 1.00
 0.13010701000000E+02 0.33485484812989E-01
 0.19622572000000E+01 0.23472187088125E+00
 0.44453796000000E+00 0.81377028525955E+00
 s    1 1.00
 0.12194962000000E+00 0.10000000000000E+01
 p    1 1.00
 0.80000000000000E+00 0.10000000000000E+01
 
    7 0
 s    3 1.00
 0.13010701000000E+02 0.33485484812989E-01
 0.19622572000000E+01 0.23472187088125E+00
 0.44453796000000E+00 0.81377028525955E+00
 s    1 1.00
 0.12194962000000E+00 0.10000000000000E+01
 p    1 1.00
 0.80000000000000E+00 0.10000000000000E+01
 
    8 0
 s    3 1.00
 0.13010701000000E+02 0.33485484812989E-01
 0.19622572000000E+01 0.23472187088125E+00
 0.44453796000000E+00 0.81377028525955E+00
 s    1 1.00
 0.12194962000000E+00 0.10000000000000E+01
 p    1 1.00
 0.80000000000000E+00 0.10000000000000E+01
 
    9 0
 s    3 1.00
 0.13010701000000E+02 0.33485484812989E-01
 0.19622572000000E+01 0.23472187088125E+00
 0.44453796000000E+00 0.81377028525955E+00
 s    1 1.00
 0.12194962000000E+00 0.10000000000000E+01
 p    1 1.00
 0.80000000000000E+00 0.10000000000000E+01
 
   10 0
 s    3 1.00
 0.13010701000000E+02 0.33485484812989E-01
 0.19622572000000E+01 0.23472187088125E+00
 0.44453796000000E+00 0.81377028525955E+00
 s    1 1.00
 0.12194962000000E+00 0.10000000000000E+01
 p    1 1.00
 0.80000000000000E+00 0.10000000000000E+01
 
[MO]
 Sym=     1a   
 Ene= -.10140148413992E+03
 Spin= Alpha
 Occup= 2.000000
     1 0.99401364840781E+00
     2 0.22392258382976E-01
     3 -.10347390597793E-01
     4 0.67372091037108E-02
     5 0.83437008905838E-05
     6 -.45453291284203E-05
     7 0.10619516631397E-03
     8 0.41987054659139E-04
     9 -.23630019413719E-04
    10 0.50960421768509E-03
    11 -.10367008253764E-03
    12 0.76832583111200E-04
    13 -.12508581579181E-02
    14 -.22646280306153E-04
    15 -.28405676798446E-04
    16 0.51051957104599E-04
    17 -.32741407349260E-05
    18 0.50557423329542E-05
    19 -.20571829239048E-04
    20 -.30563725610791E-04
    21 -.29323843361638E-03
    22 0.75041542322750E-03
    23 -.37527029716088E-04
    24 -.16594734930794E-04
    25 -.11042031991198E-03
    26 0.12303229635060E-03
    27 -.26322980094973E-04
    28 0.48589996133803E-03
    29 -.87577956301696E-05
    30 0.56650567181610E-06
    31 0.81912899583535E-05
    32 0.59017227323174E-05
    33 -.15566160553313E-04
    34 -.99084534483499E-05
    35 -.24472572586618E-04
    36 -.25827978508342E-03
    37 0.79479301415046E-03
    38 0.47964058147369E-05
    39 0.58347025330457E-04
    40 -.60051017202454E-04
    41 0.60410177918940E-05
    42 -.68617680157390E-04
    43 0.37766173942108E-03
    44 -.66350354299937E-05
    45 -.39641335482997E-05
    46 0.10599168978293E-04
    47 -.10274455462605E-05
    48 0.85096159375567E-05
    49 0.28410677872002E-04
    50 -.29261555055143E-04
    51 -.28872683305744E-03
    52 0.81606797249713E-03
    53 -.51176119220947E-05
    54 -.67131246566913E-04
    55 -.92327330549209E-04
    56 0.93744542920065E-04
    57 0.20907932821577E-03
    58 0.39917992796236E-03
    59 0.91292381603139E-05
    60 -.15081848707679E-04
    61 0.59526105473653E-05
    62 -.88396668068163E-05
    63 0.56366454989738E-05
    64 -.17836456091658E-04
    65 0.37414631027590E-04
    66 0.52521146174369E-03
    67 0.88659206938262E-05
    68 -.22462363267342E-04
    69 0.47384800146824E-04
    70 -.18260991804714E-03
    71 -.15269118215654E-02
    72 -.10474324078825E-03
    73 0.15928617904076E-03
    74 -.14307207454359E-03
    75 0.57101861012768E-04
    76 0.15645716870301E-03
    77 0.10052085111519E-05
    78 0.11070557775849E-04
    79 0.51781421904254E-05
    80 0.95388311853650E-04
    81 0.26648350292031E-03
    82 0.20680730282184E-04
    83 0.42499651940905E-05
    84 -.63386112941352E-05
    85 -.12012639661829E-03
    86 -.11718286211168E-02
    87 -.43482701415905E-04
    88 -.18640724215390E-03
    89 -.38156714243624E-08
    90 -.21751297043957E-03
    91 -.14720031079967E-02
    92 0.14415332304839E-03
    93 0.91171890763268E-04
    94 -.13743259300118E-03
 Sym=     2a   
 Ene= -.19020960514160E+02
 Spin= Alpha
 Occup= 2.000000
     1 -.13914769225965E-04
     2 0.12424850490668E-03
     3 -.88668616839601E-03
     4 0.15491613427560E-02
     5 0.14228918770445E-04
     6 0.54999983390358E-04
     7 0.28669629536392E-04
     8 0.81610278397242E-04
     9 0.30916839029139E-03
    10 0.19121937260869E-03
    11 -.22978172520006E-03
    12 -.80117412833527E-03
    13 -.67972111053775E-03
    14 -.47182228763802E-04
    15 0.19360273951288E-04
    16 0.27821954812513E-04
    17 0.17320679599272E-04
    18 0.23437528512658E-04
    19 0.86631548077647E-04
    20 0.13617540916829E-01
    21 -.13792630661530E-02
    22 0.22697718170415E-02
    23 0.12333184464933E-03
    24 0.36393100017768E-03
    25 0.20968618032966E-04
    26 -.92871511247075E-03
    27 -.11980453810514E-02
    28 0.24498711115360E-03
    29 0.25579825607429E-04
    30 -.22734347619491E-04
    31 -.28454779879384E-05
    32 0.17327085415138E-04
    33 -.70198271177692E-05
    34 -.19590170075073E-04
    35 0.98887745848697E+00
    36 -.39404449437390E-01
    37 0.17751523844336E-01
    38 -.15680769238984E-02
    39 -.17572604111608E-02
    40 -.12936361772028E-02
    41 0.68929505542773E-03
    42 0.12622002421892E-02
    43 0.28254653036151E-03
    44 0.11933851031281E-03
    45 0.18349915483456E-03
    46 -.30283766514737E-03
    47 -.39152488658009E-03
    48 0.11178648609040E-03
    49 0.68104252371678E-04
    50 0.28828970061187E-02
    51 -.67527319076271E-03
    52 0.15539183675923E-02
    53 0.11548860303231E-03
    54 0.10633671192036E-03
    55 0.38721095834500E-05
    56 -.10954806291844E-03
    57 -.59821614523414E-03
    58 -.51045983752025E-04
    59 -.21185435878347E-04
    60 0.37288322155350E-04
    61 -.16102886277003E-04
    62 -.68587256771892E-04
    63 -.10821098991079E-04
    64 0.54131127611520E-05
    65 -.58776172418036E-03
    66 0.63521107394303E-03
    67 -.55317219140690E-04
    68 0.93340771793427E-04
    69 -.46281893873236E-04
    70 0.42168350778244E-04
    71 -.15105454815274E-03
    72 -.21940557136280E-04
    73 -.19084960364873E-04
    74 -.44916376636538E-04
    75 0.12586032345937E-02
    76 -.46834101707511E-02
    77 -.17187987599199E-02
    78 -.18689931400607E-02
    79 0.52977085326933E-03
    80 -.19343924616951E-03
    81 -.13972170861799E-02
    82 -.32544713792394E-03
    83 0.26450410516735E-03
    84 0.16791303797032E-04
    85 0.11988142919617E-02
    86 -.28389706194744E-02
    87 -.29888669659448E-03
    88 -.58024645977865E-03
    89 -.24195952493635E-02
    90 -.56351107270588E-03
    91 0.33935931942033E-04
    92 0.72542017909084E-04
    93 0.62890973261173E-04
    94 0.11138481853332E-03
 Sym=     3a   
 Ene= -.19018018933870E+02
 Spin= Alpha
 Occup= 2.000000
     1 -.16744104002404E-04
     2 0.15258566299800E-03
     3 -.11537187692215E-02
     4 0.21784889848440E-02
     5 -.61921087803020E-04
     6 -.25209108558601E-04
     7 0.59022297691907E-04
     8 -.35659407220446E-03
     9 -.14262253365305E-03
    10 0.37721076115481E-03
    11 0.98056701410998E-03
    12 0.37028311696999E-03
    13 -.12644211282924E-02
    14 -.21180884779474E-04
    15 -.78778848106437E-04
    16 0.99959732885910E-04
    17 0.34280955747394E-04
    18 -.14144895861308E-03
    19 -.51446178354189E-04
    20 0.98884493445745E+00
    21 -.39622457455026E-01
    22 0.18006609265023E-01
    23 0.23115094689283E-02
    24 -.80049476139037E-03
    25 -.12275489458029E-02
    26 -.97097817338609E-03
    27 -.30099798893027E-03
    28 0.12672213098962E-02
    29 -.18395893314702E-03
    30 0.32503720753817E-03
    31 -.14107827439114E-03
    32 0.39403139597110E-03
    33 -.16655178209798E-03
    34 0.10128635494104E-03
    35 -.13793035706937E-01
    36 -.22611093612908E-03
    37 0.15588751512124E-02
    38 -.17880980525809E-03
    39 -.90999494885198E-04
    40 0.14279217008115E-03
    41 0.61605143327840E-03
    42 0.47167566020106E-03
    43 -.24885441646712E-03
    44 -.19009597343529E-04
    45 0.17419394628436E-04
    46 0.15902027150922E-05
    47 0.19132403559800E-04
    48 0.22982344473849E-04
    49 0.16618844620232E-04
    50 0.53448165100463E-02
    51 -.71565404401218E-03
    52 0.10578644384635E-02
    53 -.19691452088936E-03
    54 -.50920620621967E-04
    55 0.12956883142126E-03
    56 0.93647969188543E-03
    57 0.20379468752906E-03
    58 -.32971836985324E-03
    59 0.40172922040166E-04
    60 -.38683354767946E-04
    61 -.14895672722191E-05
    62 -.13692721116361E-04
    63 -.17422392047147E-05
    64 0.62993574846632E-05
    65 0.17391452035539E-02
    66 -.30828478263776E-02
    67 0.27242352563509E-02
    68 -.10956071787480E-02
    69 0.45607011294971E-03
    70 -.21316756616541E-03
    71 0.21656120505187E-03
    72 -.86648098375289E-05
    73 0.26120076051431E-04
    74 -.99065701190410E-05
    75 -.22819191713937E-03
    76 -.19111999710994E-02
    77 -.20844038568644E-03
    78 -.35646824018780E-03
    79 -.53873959853768E-04
    80 0.16759542061777E-04
    81 0.38597984278414E-03
    82 -.33505291579652E-04
    83 0.74267104327564E-04
    84 0.37959956631052E-04
    85 -.13246376272406E-03
    86 0.24290734098717E-03
    87 0.16369363229321E-04
    88 -.59249375596012E-05
    89 0.38821390958332E-04
    90 0.65461147095388E-03
    91 -.44315764843146E-02
    92 0.56971951218319E-03
    93 0.98195951745751E-04
    94 -.20751420094497E-02
 Sym=     4a   
 Ene= -.19013132537094E+02
 Spin= Alpha
 Occup= 2.000000
     1 -.15585693451494E-04
     2 0.14241092502542E-03
     3 -.10892098548658E-02
     4 0.20927053911922E-02
     5 0.52410639510795E-04
     6 -.50528595564542E-04
     7 0.43618582384832E-04
     8 0.31404302387275E-03
     9 -.28663159707660E-03
    10 0.28772992481938E-03
    11 -.95047096844591E-03
    12 0.75986151846361E-03
    13 -.10288719436848E-02
    14 -.31663023653683E-05
    15 -.48900848676579E-04
    16 0.52067151041948E-04
    17 -.68077560979926E-04
    18 0.12934391857603E-03
    19 -.94176597757946E-04
    20 -.54955396124621E-02
    21 -.36289778066449E-03
    22 0.13040912077508E-02
    23 0.74041380208961E-04
    24 -.11136849832787E-03
    25 0.83629122913567E-04
    26 -.50917172157338E-03
    27 0.23641299943231E-03
    28 -.17592701552874E-03
    29 0.53496975520938E-04
    30 -.23738030562745E-04
    31 -.29758944958192E-04
    32 0.15832471160896E-04
    33 -.22504289419991E-04
    34 0.21133689705884E-04
    35 -.29039229733561E-02
    36 -.34587926969838E-03
    37 0.10996250995701E-02
    38 0.20135345800538E-03
    39 -.63820178209341E-04
    40 0.28022842366007E-04
    41 -.49689467331920E-03
    42 0.62440111471891E-03
    43 -.64412895416474E-04
    44 -.84338185353168E-05
    45 0.20560349903770E-04
    46 -.12126531368453E-04
    47 -.27083082404130E-05
    48 -.10598454575157E-04
    49 -.41287891839639E-05
    50 0.98888100032182E+00
    51 -.39927503052673E-01
    52 0.17390667756423E-01
    53 -.62993771367823E-03
    54 0.22082953748993E-02
    55 -.17008877906307E-02
    56 0.86715852055600E-03
    57 -.13081710498273E-03
    58 0.83607860611071E-03
    59 0.42526697866799E-03
    60 -.40677240976328E-03
    61 -.18494568904703E-04
    62 -.22998272588094E-03
    63 -.33394280134807E-03
    64 -.10279998569717E-03
    65 -.19547150748311E-03
    66 -.14459259911534E-02
    67 0.37984872978689E-03
    68 0.11114607077453E-03
    69 -.17781068371586E-03
    70 0.12679491124553E-02
    71 -.44788922243383E-02
    72 -.12139391138523E-02
    73 0.98284123060535E-04
    74 -.22431046870436E-02
    75 -.57218673131154E-04
    76 -.11371226064977E-03
    77 0.14176091945482E-03
    78 0.73650082828349E-04
    79 -.55426753805179E-04
    80 0.23752060740295E-02
    81 -.31907768733797E-02
    82 0.21240648468465E-03
    83 0.31534393774404E-02
    84 -.14175361821144E-04
    85 -.21636090780911E-03
    86 0.37674459332532E-03
    87 0.15160696687502E-04
    88 0.10527122256552E-04
    89 -.83095875318414E-05
    90 -.21391118884867E-04
    91 0.28480169460696E-03
    92 -.60240174892936E-04
    93 0.44665557283860E-04
    94 -.77932056058309E-04
 Sym=     5a   
 Ene= -.92512390071313E+01
 Spin= Alpha
 Occup= 2.000000
     1 -.31184725515269E+00
     2 0.10219553976525E+01
     3 0.48653149835463E-01
     4 -.20176380775567E-01
     5 0.30974734568592E-04
     6 -.76794433477075E-04
     7 0.10476573197334E-02
     8 -.10450501488193E-03
     9 0.56025279077080E-04
    10 -.12971229758785E-02
    11 0.25136522308695E-03
    12 -.16290422707664E-03
    13 0.30251417539639E-02
    14 0.43851324701801E-04
    15 0.54236139357017E-04
    16 -.98087464058819E-04
    17 0.59913723620306E-05
    18 -.12454643524951E-04
    19 0.31589326279333E-04
    20 0.58499165664844E-04
    21 0.58762741957882E-03
    22 -.17207607630923E-02
    23 0.94415385602735E-04
    24 0.39628265574161E-04
    25 0.19956332557434E-03
    26 -.34822727610470E-03
    27 0.42977552528835E-04
    28 -.11263509230558E-02
    29 0.24721825160449E-04
    30 -.25242422249496E-06
    31 -.24469400937954E-04
    32 -.12700334924836E-04
    33 0.25454637715599E-04
    34 0.15479060139625E-04
    35 0.52463333595618E-04
    36 0.55491339140631E-03
    37 -.18064175696458E-02
    38 -.17067229380009E-04
    39 -.13689736187068E-03
    40 0.13402341006683E-03
    41 0.18101816164676E-04
    42 0.21013538288334E-03
    43 -.86614159404981E-03
    44 0.83822425971966E-05
    45 0.46095433579115E-05
    46 -.12991785955108E-04
    47 0.38536930879835E-05
    48 -.15204374699220E-04
    49 -.52126998219600E-04
    50 0.55288090404010E-04
    51 0.57538795257179E-03
    52 -.18930432076932E-02
    53 -.81719605884060E-05
    54 0.15022110987431E-03
    55 0.15840632783978E-03
    56 -.20176062782606E-03
    57 -.54094697988814E-03
    58 -.91346054120284E-03
    59 -.15901724261853E-04
    60 0.33737600582039E-04
    61 -.17835876320187E-04
    62 0.12896704426671E-04
    63 -.11781190814035E-04
    64 0.26148585915445E-04
    65 -.11877302553100E-03
    66 -.12924000848940E-02
    67 -.14625120622443E-04
    68 0.55232307105662E-04
    69 -.11136316895216E-03
    70 0.46480046830786E-03
    71 0.37649057940867E-02
    72 0.18184737673000E-03
    73 -.31380364873852E-03
    74 0.25323399071417E-03
    75 -.15219423663465E-03
    76 -.44670592008768E-03
    77 -.33075311456658E-05
    78 -.29195736701864E-04
    79 -.87972316491615E-05
    80 -.24796316074772E-03
    81 -.65358001895598E-03
    82 -.48959226480753E-04
    83 -.29199673080269E-05
    84 0.14241855945398E-04
    85 0.27707191670046E-03
    86 0.29257084761646E-02
    87 0.10189443136557E-03
    88 0.43260659510689E-03
    89 0.43472863647762E-04
    90 0.53574191811316E-03
    91 0.36586263995389E-02
    92 -.27360041063907E-03
    93 -.18601254851654E-03
    94 0.24059750581091E-03
 Sym=     6a   
 Ene= -.69869848844193E+01
 Spin= Alpha
 Occup= 2.000000
     1 0.40946180374004E-03
     2 -.16178843184060E-02
     3 0.22130215752745E-02
     4 -.34017506677621E-02
     5 -.12811004821813E+00
     6 -.45972025607942E+00
     7 0.85737367670987E+00
     8 0.64497980590199E-02
     9 0.23318008488648E-01
    10 -.43837354661082E-01
    11 -.96349204948231E-03
    12 -.38598439766117E-02
    13 0.79689499900535E-02
    14 -.89384056046902E-05
    15 0.55393732040761E-04
    16 -.46455326436071E-04
    17 0.16605302734380E-04
    18 0.14791623970393E-04
    19 0.53701396694952E-04
    20 0.55366447758160E-04
    21 0.50254551199275E-03
    22 -.12863259617081E-02
    23 0.85545095866425E-04
    24 0.19760784436219E-04
    25 0.18629545966738E-03
    26 -.28895006388303E-03
    27 0.82844593851722E-04
    28 -.62077953310384E-03
    29 -.42677996223164E-05
    30 -.29484519642464E-04
    31 0.33752319264781E-04
    32 -.13630471643553E-04
    33 0.23141898956445E-04
    34 0.10228801031960E-04
    35 -.45434879117064E-05
    36 -.38388181724007E-04
    37 0.62700117649901E-04
    38 0.31539913237863E-05
    39 -.54763099939296E-04
    40 -.14743095581312E-04
    41 -.24027802384842E-04
    42 0.83227882670987E-04
    43 0.18501153575792E-03
    44 -.12058052149302E-04
    45 -.14519516887823E-04
    46 0.26577569037125E-04
    47 0.54405164928151E-05
    48 -.19764353166418E-06
    49 -.14129947720908E-04
    50 0.44496927672302E-04
    51 0.41612233667412E-03
    52 -.10905020652378E-02
    53 0.14654525784851E-05
    54 0.10500397052496E-03
    55 0.15974441582652E-03
    56 -.56628085246350E-04
    57 -.33806527859318E-03
    58 -.41108911404950E-03
    59 -.38028906253119E-04
    60 0.27633550871666E-05
    61 0.35265551165953E-04
    62 0.10850893272349E-04
    63 0.13599700810197E-04
    64 0.28550838030426E-04
    65 -.16977856562463E-03
    66 -.81846525492758E-03
    67 0.92235545819531E-05
    68 0.41318281390924E-04
    69 -.99367383265446E-04
    70 0.37711741382349E-03
    71 0.23214994406356E-02
    72 0.44047117353213E-03
    73 -.27792141076819E-03
    74 0.41862937339354E-03
    75 -.20969803406582E-03
    76 0.24259486250557E-03
    77 -.36292200987499E-04
    78 -.49590884222265E-04
    79 -.29861079037952E-04
    80 -.17331457542828E-03
    81 -.31062539975067E-03
    82 -.49062176712603E-04
    83 -.74735546928874E-05
    84 0.10230076486509E-04
    85 0.22378033711944E-04
    86 -.29420626668967E-04
    87 0.64838627561850E-04
    88 0.21402509162447E-03
    89 0.12106336770734E-03
    90 0.46519893563455E-03
    91 0.27464579347434E-02
    92 -.45981981552248E-03
    93 -.13874021914807E-03
    94 0.50743854273917E-03
 Sym=     7a   
 Ene= -.69863987460470E+01
 Spin= Alpha
 Occup= 2.000000
     1 0.23962718797139E-04
     2 -.10345859419404E-03
     3 0.21280377309231E-03
     4 -.33396370629536E-03
     5 0.94103865351898E+00
     6 -.27824410232868E+00
     7 -.86008146434073E-02
     8 -.47563220527767E-01
     9 0.14059220681411E-01
    10 0.38549786656501E-03
    11 0.76630113746474E-02
    12 -.22460080616339E-02
    13 0.42218889168653E-04
    14 -.31642671604646E-06
    15 -.70856231474794E-05
    16 0.74020498635258E-05
    17 0.48126929798553E-04
    18 -.87036956116419E-04
    19 0.19175000032289E-04
    20 -.43766615070093E-04
    21 -.44368714094505E-03
    22 0.14183829324625E-02
    23 -.62779752359297E-04
    24 -.18218730632576E-04
    25 -.89867490433861E-04
    26 0.17264271128601E-03
    27 0.53714166636990E-05
    28 0.54546532320572E-03
    29 -.71953588400897E-05
    30 0.67287345707087E-06
    31 0.65224853830189E-05
    32 -.15013362464796E-06
    33 -.10111784023803E-05
    34 -.10939956486106E-04
    35 -.87569544745260E-06
    36 -.63362421170013E-05
    37 0.30022651786173E-04
    38 0.10210646673656E-04
    39 0.49879845894823E-05
    40 -.64912315717041E-05
    41 0.22243794138279E-04
    42 -.19887605223457E-04
    43 0.11807476821190E-04
    44 0.17009382616843E-05
    45 -.14964860649164E-05
    46 -.20445219676788E-06
    47 0.52026622912706E-05
    48 0.12540008413829E-04
    49 -.60165890184232E-05
    50 0.51701054893458E-04
    51 0.52340959021354E-03
    52 -.16816056483997E-02
    53 0.70607328197072E-05
    54 0.10665192661788E-03
    55 0.97875550854622E-04
    56 -.11585006754636E-03
    57 -.31752232394501E-03
    58 -.55600668684156E-03
    59 0.38167006927000E-05
    60 0.91398912446451E-05
    61 -.12956591937345E-04
    62 0.65890442232966E-05
    63 0.85531352347555E-05
    64 0.17762894705144E-04
    65 -.54433992249482E-04
    66 0.82862512384048E-04
    67 0.21295754070846E-04
    68 -.16679558962784E-04
    69 -.58223855570338E-04
    70 0.20896598706491E-03
    71 0.28163385123136E-02
    72 0.69460943674388E-04
    73 -.20809028997908E-03
    74 0.21289936698676E-03
    75 0.50635166299305E-04
    76 0.26522600682048E-04
    77 0.40366641509311E-04
    78 0.62333517676733E-05
    79 0.63875619284349E-05
    80 -.99792805880049E-04
    81 -.20992944976431E-03
    82 -.12545062957435E-04
    83 0.13914458215232E-04
    84 0.14553696865610E-04
    85 0.53671121154129E-05
    86 -.59002975932610E-04
    87 -.93504984115719E-04
    88 0.25495781220635E-04
    89 0.49881194752163E-05
    90 -.12788054355294E-03
    91 -.22483472104459E-02
    92 0.45810682995855E-04
    93 0.13335010629493E-03
    94 -.95372631324111E-04
 Sym=     8a   
 Ene= -.69863104258906E+01
 Spin= Alpha
 Occup= 2.000000
     1 0.20127543129905E-03
     2 -.80209950776850E-03
     3 0.11084644411098E-02
     4 -.15491619528364E-02
     5 0.24714741949743E+00
     6 0.82115482356278E+00
     7 0.47714806410513E+00
     8 -.12491278112488E-01
     9 -.41412353490980E-01
    10 -.24267568361271E-01
    11 0.19813290942389E-02
    12 0.64259354067721E-02
    13 0.41032004527482E-02
    14 0.26948605560377E-04
    15 -.40679491514612E-04
    16 0.13730885954234E-04
    17 -.18808689506272E-04
    18 -.11183755361368E-04
    19 -.26270298851707E-04
    20 -.72128835953939E-05
    21 -.88249440855650E-04
    22 0.31469492877407E-03
    23 0.14542035778407E-04
    24 0.21720026311672E-04
    25 -.11944155360297E-04
    26 -.90642250016743E-04
    27 0.44174132161200E-04
    28 0.18019136927426E-03
    29 -.18988114648093E-05
    30 -.19282342143262E-04
    31 0.21181153608072E-04
    32 -.11429206238719E-04
    33 0.61714224049833E-05
    34 0.23585862027122E-04
    35 0.55576129508035E-04
    36 0.56514023146966E-03
    37 -.17707746759629E-02
    38 -.31385215200269E-04
    39 -.13524913525334E-03
    40 0.11868104361468E-03
    41 0.70743713061879E-04
    42 0.20437868361107E-03
    43 -.60327646136194E-03
    44 -.70442582962664E-05
    45 -.79505554184082E-05
    46 0.14994813714675E-04
    47 0.47865845875832E-05
    48 -.12053514498483E-04
    49 -.46646900911665E-04
    50 -.80615964508948E-05
    51 -.96639929471074E-04
    52 0.30474339648623E-03
    53 -.23047550376733E-04
    54 0.38469825701473E-04
    55 -.17126025618705E-04
    56 0.13489540055504E-03
    57 -.73465908672858E-04
    58 0.24057766634825E-03
    59 -.19461221069657E-04
    60 0.26688658309894E-05
    61 0.16792355238667E-04
    62 0.14174510945080E-04
    63 0.20889703609916E-04
    64 0.22085959306265E-04
    65 -.10834005318564E-03
    66 -.23830949831663E-04
    67 0.35751468840780E-05
    68 0.24418576161304E-04
    69 -.42966498640316E-04
    70 0.32862159977139E-04
    71 -.59199277247957E-04
    72 0.13296992398865E-03
    73 -.24641665999101E-03
    74 0.17889037866633E-03
    75 -.13315384753658E-03
    76 -.91742099511935E-04
    77 -.45545997691126E-05
    78 -.13139271030569E-04
    79 0.33760295394155E-04
    80 -.24343525088098E-03
    81 0.75596103874917E-04
    82 -.31557786252108E-04
    83 0.29407624963393E-04
    84 -.43310076839192E-04
    85 0.17767408043580E-03
    86 0.26964360289134E-02
    87 0.11307496121287E-03
    88 0.50253388427937E-03
    89 0.15427715222058E-03
    90 0.89004470186184E-04
    91 -.16621129227806E-03
    92 -.15831360387364E-03
    93 -.20537000697267E-03
    94 0.15206431038585E-03
 Sym=     9a   
 Ene= -.84447608095129E+00
 Spin= Alpha
 Occup= 2.000000
     1 0.30439145639564E-02
     2 -.18745371830644E-01
     3 0.23900563714301E-01
     4 0.13068934465028E-01
     5 -.86841883183127E-03
     6 0.38931629881614E-03
     7 -.41640768759988E-02
     8 -.13515449095636E-02
     9 0.89990055372748E-03
    10 -.67543649185701E-02
    11 -.14440114544313E-02
    12 -.68011841480326E-03
    13 -.58935763739918E-02
    14 -.43318964742037E-03
    15 -.49023627282856E-03
    16 0.92342592024893E-03
    17 0.65185408342919E-05
    18 0.39291565675655E-03
    19 0.16881839372759E-04
    20 0.13295905182871E+00
    21 0.26505977446816E+00
    22 0.12708034460752E+00
    23 -.49996137333065E-01
    24 0.15943197549843E-01
    25 0.24593297617193E-01
    26 0.70770083210949E-03
    27 -.11898825845448E-02
    28 0.13437124013354E-02
    29 0.64535659390691E-03
    30 -.80322662012959E-03
    31 0.15787002622267E-03
    32 -.91992016203540E-03
    33 0.61691023855518E-05
    34 -.16180222308556E-03
    35 0.12234133553746E+00
    36 0.24460542155384E+00
    37 0.11707805611748E+00
    38 0.27795244560298E-01
    39 0.36445438832158E-01
    40 0.23765142605151E-01
    41 -.27774145364162E-02
    42 -.15759978993892E-03
    43 0.10242416385341E-02
    44 -.20045031768031E-03
    45 -.90302342446693E-04
    46 0.29075266012701E-03
    47 0.88850809376191E-03
    48 -.72169868965584E-04
    49 0.58006074278589E-04
    50 0.20105399072477E+00
    51 0.39800877681754E+00
    52 0.19194712658011E+00
    53 0.21163407049495E-01
    54 -.66574249852965E-01
    55 0.49028362647004E-01
    56 0.21508176317013E-02
    57 0.37154998594652E-02
    58 -.21652218731751E-02
    59 -.12272886625994E-02
    60 0.13074404897431E-02
    61 -.80151827143610E-04
    62 0.50689254016909E-03
    63 0.10520272024717E-02
    64 -.24362169477713E-03
    65 0.11135786315323E+00
    66 0.13423145318923E-01
    67 0.12320040034113E-01
    68 -.84891035783553E-02
    69 0.82369009735080E-02
    70 0.13736617580107E+00
    71 0.59174201099494E-02
    72 -.92721848606717E-02
    73 -.58259141538062E-02
    74 -.21808205614527E-01
    75 0.94606008894162E-01
    76 0.15144702062359E-01
    77 -.10869938280980E-01
    78 -.65972235200133E-02
    79 0.72388812720447E-02
    80 0.16092637740660E+00
    81 0.12574652632356E-01
    82 0.72935416368859E-02
    83 0.24732097021990E-01
    84 0.45809693930621E-02
    85 0.83629634427967E-01
    86 0.21837775304284E-02
    87 -.19333231672083E-03
    88 0.29483844472058E-03
    89 -.15211660545932E-01
    90 0.85034098748933E-01
    91 0.31350275121158E-02
    92 -.16185354156855E-02
    93 0.66217647280550E-03
    94 -.15413919802766E-01
 Sym=    10a   
 Ene= -.82261836137732E+00
 Spin= Alpha
 Occup= 2.000000
     1 0.38417082463650E-03
     2 -.23850367991474E-02
     3 0.32772295439142E-02
     4 0.87951681266768E-03
     5 0.20407084678424E-02
     6 -.91843889892358E-03
     7 -.62678225255968E-03
     8 0.34364523470338E-02
     9 -.16998887706053E-02
    10 -.10153511830631E-02
    11 0.23601867073619E-02
    12 -.84283601316106E-03
    13 -.73977574807684E-03
    14 -.33095156406764E-03