
OPTIMIZATION CYCLE 376
Wed Mar  7 23:21:45 PST 2018
 hostname is c-5-15.local

 frog (c-5-15.local) : TURBOMOLE V7.1 ( ) 5 Apr 2016 at 11:29:09
 Copyright (C) 2016 TURBOMOLE GmbH, Karlsruhe


    2018-03-07 23:21:46.019 


 frog (c-5-15.local) : TURBOMOLE V7.1 ( ) 5 Apr 2016 at 11:29:09
 Copyright (C) 2016 TURBOMOLE GmbH, Karlsruhe


    2018-03-07 23:21:46.019 

 
       `--._            A b     I n i t i o           .-
            `.  M o l e c u l a r   D y n a m i c s  /
              \               .-.       .           / 
               \             /   \     / `.        /  
                `-----._    /     `._.'    `--.__.'   
                        `--'                          
 
 

Reading information from mdmaster                                                                        
 
 =========================================
 TDDFT-SURFACE HOPPING switched on
 Tapavicza, Meyer, and Furche,
 Phys. Chem. Chem. Phys. 13 (2011), 20986.
 =========================================
 
 found keyword $gap_threshold; hop is enforced if gap <  0.500000000000000     
Reading log history information from mdmaster                                                                        
Reading input data from mdlog.2                                                                         
Checking for non-default isotopic masses in control                                                                         
 
No constraints requested.
Reading status from mdmaster                                                                        
Reading actions from mdmaster                                                                        
Getting gradients from control                                                                         
 non-adiabatic coupling vector
 -1.292402254624800E-002  0.160699490842760      -0.103234694671710     
  1.837700644111700E-002  2.511270709173700E-002 -2.828549536529500E-002
  8.275827906325899E-003  9.044110391699300E-002 -6.401910762417699E-002
  3.275047110093500E-003 -1.172999137276500E-003 -1.019909349007300E-002
 -2.099025081776800E-002  8.563546133638500E-003  1.062013344136000E-002
  3.674639481204700E-003 -1.086496365676000E-002  4.195173770840700E-003
  4.957714634767200E-002 -3.730819575379400E-002  0.172087252922290     
 -6.316100907184501E-002 -2.969620996923600E-002 -0.161575357058250     
 -9.322847922601400E-003 -5.494117038534700E-003  7.057728864275300E-003
 leap: Read last 2 entries of RUN.dat
 Old state:           0
 New state:           0
 Propagating Coefficients
 
 ==============Surface Hopping Information================
 
 Probability from           1 to           2 : -1.866345875446153E-004
 Random number   0.840349826230543     
 
 COEFF OF STATE           1 = (0.999638664842076,4.059149921578705E-003)
 COEFF OF STATE           2 = (1.430241836779535E-002,-2.239428238139361E-002)
 
 POPULATION OF STATE           1 =  0.999293936945335     
 POPULATION OF STATE           2 =  7.060630545450463E-004
 SUM OF ALL POPULATIONS =  0.999999999999880     
 
 =========================================================
 
Scaling KE by   0.695476877899    
 
Generating $log data for last completed MD step:                                
t=   15000.0000000                                                              
 0.359168079953E-01 -0.569873737049E-01 -0.278992562698E-01 ti                  
  1.00306531128      -2.73851902356       1.88352454047     o                   
 -2.81849200378     -0.740481299594      -1.84961885162     o                   
 -4.68755335154     -0.875461338806      -2.22287135390     h                   
 -1.16472982102       2.68901251806       1.87428229332     o                   
-0.571421238460E-01   4.13072143471       1.85604396087     h                   
  2.74005772846      0.982172256747      -1.91453748051     o                   
  4.78064566933     -0.697990952696      -1.86450998467     h                   
  2.06829963187      -2.89968124287       3.65792804201     h                   
  40.0000000000       0.00000000000                                             
ti       -0.742340806211E-04  0.269192768354E-03  0.198840614371E-03            
o        -0.542653688901E-04 -0.984752745303E-04  0.232886090163E-04            
o         0.786958921503E-03 -0.272801946524E-04  0.529312703297E-04            
h        -0.108691010208E-01 -0.164904993771E-02 -0.209959301885E-02            
o         0.335123847826E-03 -0.585337119458E-03 -0.371988690349E-03            
h         0.520545111660E-03 -0.625942277595E-03 -0.325648660533E-03            
o         0.262873964958E-03 -0.264680992024E-03 -0.133925234209E-03            
h        -0.613713370120E-02  0.479804742750E-02  0.402152020229E-03            
h        -0.110853537557E-02  0.172916133501E-03 -0.605578359788E-03            
 0.212789207885      -1152.00702425       0.00000000000                         
 0.363294338598E-01 -0.132748779809E-01 -0.296037874042E-02                     
-0.433702781986E-01 -0.402783506861E-02 -0.679296485277E-01                     
 0.119471448168E-01  0.488212674751E-02 -0.522878367456E-03                     
-0.481164691791E-01 -0.487552815329E-02 -0.124915744886E-01                     
-0.208045803711E-01  0.284786815754E-01  0.159409896767E-01                     
-0.106274601764E-02 -0.446442729469E-02 -0.181532354219E-02                     
-0.795236404420E-01  0.792165140135E-01 -0.922773924443E-02                     
 0.956071506359E-01 -0.765632114257E-01  0.937327838864E-03                     
 0.489939848957E-01 -0.937144240870E-02  0.780692254025E-01                     
 

   Time t=   15000.0000000     a.u. (  362.820000000     fs)

   e x e c u t i n g    M D   s t e p   (leapfrog algorithm)

   Number of MD steps left:    1124
 
   Time t=   15040.0000000     a.u. (  363.787520000     fs)

 
Provisional $current data:                                                      
t=   15040.0000000                                                              
 0.322817378776E-01 -0.459764117875E-01 -0.198913851977E-01 ti                  
  1.00327399238      -2.74223706729       1.88818270910     o                   
 -2.78766906794     -0.741840341123      -1.84747291567     o                   
 -5.08041815853     -0.937177785931      -2.29597756412     h                   
 -1.15018352668       2.66403669124       1.85852822213     o                   
-0.353948931240E-01   4.10957131238       1.84459877602     h                   
  2.75493535837      0.967239194729      -1.91938825559     o                   
  4.45190678191     -0.439398745957      -1.84924011750     h                   
  1.98129485304      -2.88460405991       3.56572317940     h                   
  40.0000000000       0.00000000000                                             
ti       -0.757869010648E-04  0.229565497897E-03  0.166954615186E-03            
o         0.435075352583E-05 -0.775168024130E-04  0.971172918020E-04            
o         0.642621658734E-03 -0.283344041758E-04  0.447402196425E-04            
h        -0.819076532096E-02 -0.128671473200E-02 -0.152417778516E-02            
o         0.303272986340E-03 -0.520716370023E-03 -0.328453701269E-03            
h         0.453403970152E-03 -0.440954968264E-03 -0.238618531019E-03            
o         0.310180939954E-03 -0.311336633706E-03 -0.101132907875E-03            
h        -0.685381594574E-02  0.539134084173E-02  0.318358621754E-03            
h        -0.181394645823E-02  0.314341384437E-03 -0.192236203819E-02            
 
    50 energy records for statistics read from mdlog.2                                                                         
       Total Energy (H):
              current value   -1151.79423504    
                    average   -1151.85980194    
         standard deviation   0.401538477032E-01
                      drift  -0.287439796557E-04
        jump from last step   0.153208179380    
 
     Kinetic Energy (H):
              current value   0.212789207885    
                    average   0.107723967778    
         standard deviation   0.599705475333E-01
                      drift  -0.100927291658E-03
 avg. quasi-temperature (K)    3239.37529687    
      number of constraints       0
 
         Pressure (GPa):
              current value    0.00000000000    
                    average    0.00000000000    
 
 
   approx integration error   0.294199702966    
 
Estimated integration error by reading last steps from mdlog.2                  
 
Generating $log data for last completed MD step:                                
t=   15000.0000000                                                              
 0.359168079953E-01 -0.569873737049E-01 -0.278992562698E-01 ti                  
  1.00306531128      -2.73851902356       1.88352454047     o                   
 -2.81849200378     -0.740481299594      -1.84961885162     o                   
 -4.68755335154     -0.875461338806      -2.22287135390     h                   
 -1.16472982102       2.68901251806       1.87428229332     o                   
-0.571421238460E-01   4.13072143471       1.85604396087     h                   
  2.74005772846      0.982172256747      -1.91453748051     o                   
  4.78064566933     -0.697990952696      -1.86450998467     h                   
  2.06829963187      -2.89968124287       3.65792804201     h                   
  40.0000000000       0.00000000000                                             
ti       -0.742340806211E-04  0.269192768354E-03  0.198840614371E-03            
o        -0.542653688901E-04 -0.984752745303E-04  0.232886090163E-04            
o         0.786958921503E-03 -0.272801946524E-04  0.529312703297E-04            
h        -0.108691010208E-01 -0.164904993771E-02 -0.209959301885E-02            
o         0.335123847826E-03 -0.585337119458E-03 -0.371988690349E-03            
h         0.520545111660E-03 -0.625942277595E-03 -0.325648660533E-03            
o         0.262873964958E-03 -0.264680992024E-03 -0.133925234209E-03            
h        -0.613713370120E-02  0.479804742750E-02  0.402152020229E-03            
h        -0.110853537557E-02  0.172916133501E-03 -0.605578359788E-03            
 0.212789207885      -1152.00702425       0.00000000000                         
 0.363294338598E-01 -0.132748779809E-01 -0.296037874042E-02                     
-0.433702781986E-01 -0.402783506861E-02 -0.679296485277E-01                     
 0.119471448168E-01  0.488212674751E-02 -0.522878367456E-03                     
-0.481164691791E-01 -0.487552815329E-02 -0.124915744886E-01                     
-0.208045803711E-01  0.284786815754E-01  0.159409896767E-01                     
-0.106274601764E-02 -0.446442729469E-02 -0.181532354219E-02                     
-0.795236404420E-01  0.792165140135E-01 -0.922773924443E-02                     
 0.956071506359E-01 -0.765632114257E-01  0.937327838864E-03                     
 0.489939848957E-01 -0.937144240870E-02  0.780692254025E-01                     
 
Generated $current data for new MD step:                                        
t=   15040.0000000                                                              
 0.322817378776E-01 -0.459764117875E-01 -0.198913851977E-01 ti                  
  1.00327399238      -2.74223706729       1.88818270910     o                   
 -2.78766906794     -0.741840341123      -1.84747291567     o                   
 -5.08041815853     -0.937177785931      -2.29597756412     h                   
 -1.15018352668       2.66403669124       1.85852822213     o                   
-0.353948931240E-01   4.10957131238       1.84459877602     h                   
  2.75493535837      0.967239194729      -1.91938825559     o                   
  4.45190678191     -0.439398745957      -1.84924011750     h                   
  1.98129485304      -2.88460405991       3.56572317940     h                   
  40.0000000000       0.00000000000                                             
ti       -0.757869010648E-04  0.229565497897E-03  0.166954615186E-03            
o         0.435075352583E-05 -0.775168024130E-04  0.971172918020E-04            
o         0.642621658734E-03 -0.283344041758E-04  0.447402196425E-04            
h        -0.819076532096E-02 -0.128671473200E-02 -0.152417778516E-02            
o         0.303272986340E-03 -0.520716370023E-03 -0.328453701269E-03            
h         0.453403970152E-03 -0.440954968264E-03 -0.238618531019E-03            
o         0.310180939954E-03 -0.311336633706E-03 -0.101132907875E-03            
h        -0.685381594574E-02  0.539134084173E-02  0.318358621754E-03            
h        -0.181394645823E-02  0.314341384437E-03 -0.192236203819E-02            
 
Logging MD run data ($log) to file mdlog.2                                                                         
Writing data for next step ($current) to mdlog.2                                                                         

    2018-03-07 23:21:47.115 

         total cpu-time :   1.09 seconds
         total wall-time :   1.10 seconds

          ******************************************************



    ------------------------------------------------------------------------
         total  cpu-time :   1.10 seconds
         total wall-time :   1.10 seconds
    ------------------------------------------------------------------------

   ****  frog : all done  ****


    2018-03-07 23:21:47.115 

 operating system is UNIX !
 hostname is c-5-15.local

 ridft (c-5-15.local) : TURBOMOLE V7.1 ( ) 5 Apr 2016 at 11:29:09
 Copyright (C) 2016 TURBOMOLE GmbH, Karlsruhe


    2018-03-07 23:21:47.376 



                                  r i d f t

                        DFT program with RI approximation 
                                for coulomb part 




                                                 
                                 References:     
                                                 
          TURBOMOLE:                             
              R. Ahlrichs, M. Baer, M. Haeser, H. Horn, and
              C. Koelmel
              Electronic structure calculations on workstation
              computers: the program system TURBOMOLE
              Chem. Phys. Lett. 162: 165 (1989)
          Density Functional:                              
              O. Treutler and R. Ahlrichs                      
              Efficient Molecular Numerical Integration Schemes
              J. Chem. Phys. 102: 346 (1995)                   
          Parallel Version:                                
              Performance of parallel TURBOMOLE for Density    
              Functional Calculations                          
              M. v. Arnim and R. Ahlrichs                      
              J. Comp. Chem. 19: 1746 (1998)                   
          RI-J Method:                                     
              Auxiliary Basis Sets to approximate Coulomb      
              Potentials                                       
              Chem. Phys. Lett. 240: 283 (1995)                
              K. Eichkorn, O. Treutler, H. Oehm, M. Haeser     
              and R. Ahlrichs                                  
              Chem. Phys. Lett. 242: 652 (1995)                
                                                           
              Auxiliary Basis Sets for Main Row Atoms and their
              Use to approximate Coulomb Potentials            
              K. Eichkorn, F. Weigend, O. Treutler and         
              R. Ahlrichs                                      
              Theo. Chem. Acc. 97: 119 (1997)                   
                                                           
              Accurate Coulomb-fitting basis sets for H to Rn 
              F. Weigend                                        
              Phys. Chem. Chem. Phys. 8: 1057 (2006)            
                                                           
          Multipole accelerated RI-J (MARI-J):             
              Fast evaluation of the Coulomb potential for     
              electron densities using multipole accelerated   
              resolution of identity approximation             
              M. Sierka, A. Hogekamp and R. Ahlrichs           
              J. Chem. Phys. 118: 9136 (2003)                  
          RI-JK Method:                                     
              A fully direct RI-HF algorithm: Implementation,
              optimised auxiliary basis sets, demonstration of
              accuracy and efficiency                         
              F. Weigend                                      
              Phys. Chem. Chem. Phys. 4: 4285 (2002)           
          Two-component HF and DFT with spin-orbit coupling:  
              Self-consistent treatment of spin-orbit         
              interactions with efficient Hartree-Fock and    
              density functional methods                      
              M. K. Armbruster, F. Weigend, C. van Wüllen and 
              W. Klopper                                      
              Phys. Chem. Chem. Phys. 10: 1748 (2008)         
          Relativistic all-electron 2c calculations           
              An efficient implementation of two-component    
              relativistic exact-decoupling methods for large 
              molecules                                       
              D. Peng, N. Middendorf, F. Weigend, M. Reiher   
              J. Chem. Phys. 138, 184105 (2013)               
                                         


 


              +--------------------------------------------------+
              |      general information about current run       |
              +--------------------------------------------------+

 

 DENSITY CONVERGENCE CHECK SWITCHED ON !
 SCF CONVERGENCE IF RMS(delta[D]) <     0.1000000000E-06

 PBE0 hybrid functional
 exchange:    3/4 (LDA+PBE) + 1/4 HF
 correlation: LDA (PW) + PBE
 A Hybrid-DFT calculation using the RI-J approximation will be carried out.
 Allocatable memory for RI due to $ricore (MB):         500


              +--------------------------------------------------+
              | Atomic coordinate, charge and isotop information |
              +--------------------------------------------------+

                    atomic coordinates            atom    charge  isotop
          0.03228174   -0.04597641   -0.01989139    ti    22.000     0
          1.00327399   -2.74223707    1.88818271    o      8.000     0
         -2.78766907   -0.74184034   -1.84747292    o      8.000     0
         -5.08041816   -0.93717779   -2.29597756    h      1.000     0
         -1.15018353    2.66403669    1.85852822    o      8.000     0
         -0.03539489    4.10957131    1.84459878    h      1.000     0
          2.75493536    0.96723919   -1.91938826    o      8.000     0
          4.45190678   -0.43939875   -1.84924012    h      1.000     0
          1.98129485   -2.88460406    3.56572318    h      1.000     0
 
       center of nuclear mass  :   -0.00000001   -0.00000000   -0.00000002
       center of nuclear charge:    0.01018001    0.00024996    0.01148779

              +--------------------------------------------------+
              |               basis set information              |
              +--------------------------------------------------+

              we will work with the 1s 3p 5d 7f 9g ... basis set
              ...i.e. with spherical basis functions...

   type   atoms  prim   cont   basis
   ---------------------------------------------------------------------------
    ti       1     73     31   def2-SVP   [5s3p2d1f|14s9p5d1f]
    o        4     24     14   def2-SVP   [3s2p1d|7s4p1d]
    h        4      7      5   def2-SVP   [2s1p|4s1p]
   ---------------------------------------------------------------------------
   total:    9    197    107
   ---------------------------------------------------------------------------

   total number of primitive shells          :   46
   total number of contracted shells         :   47
   total number of cartesian basis functions :  116
   total number of SCF-basis functions       :  107


 integral neglect threshold       :  0.29E-10
 integral storage threshold THIZE :  0.10E-04
 integral storage threshold THIME :         5

 RI-J AUXILIARY BASIS SET information:

              we will work with the 1s 3p 5d 7f 9g ... basis set
              ...i.e. with spherical basis functions...

   type   atoms  prim   cont   basis
   ---------------------------------------------------------------------------
    ti       1    107     89   def2-SVP   [8s5p5d2f3g|19s5p5d3f3g]
    o        4     70     49   def2-SVP   [6s4p3d1f1g|12s5p4d2f1g]
    h        4     16     11   def2-SVP   [3s1p1d|5s2p1d]
   ---------------------------------------------------------------------------
   total:    9    451    329
   ---------------------------------------------------------------------------

   total number of primitive shells          :   67
   total number of contracted shells         :  103
   total number of cartesian basis functions :  410
   total number of SCF-basis functions       :  329


 symmetry group of the molecule :   c1 

 the group has the following generators :
   c1(z)

    1 symmetry operations found

 there are 1 real representations :   a   

 maximum number of shells which are related by symmetry :  1


    mo occupation :
   irrep   mo's   occupied
    a      107       29
 
 number of basis functions   :          107
 number of occupied orbitals :           29
 
  
           ------------------
           density functional
           ------------------
 PBE0 hybrid functional
 exchange:    3/4 (LDA+PBE) + 1/4 HF
 correlation: LDA (PW) + PBE
 iterations will be done with small grid
  
 spherical integration : Lebedev's spherical grid
 spherical gridsize    :           3
    i.e. gridpoints    :         302
 value for diffuse not defined
 radial integration    : Chebyshev 2nd kind (scaling 3)
 radial gridsize       :           3
 integration cells     :           9
 partition function    : becke
 partition sharpness   :           3
  

 biggest AO integral is expected to be    13.493451081
  
           ------------------------
               RI-J - INFORMATION
           ------------------------
 Contributions to RI integral batches: 
  neglected integral batches:          78
  direct contribution:                  0
  memory contribution:        1050
 Memory core needed for (P|Q) and Cholesky      1 MByte
 Memory core minimum needed except of (P|Q)     1 MByte
 Total minimum memory core needed (sum)         1 MByte
  
 ****************************************
 Memory allocated for RI-J    22 MByte
 ****************************************
                                            

          ------------------------
          nuclear repulsion energy  :   319.497982318    
          ------------------------

 
          -----------------
          -S,T+V- integrals
          -----------------

 1e-integrals will be neglected if expon. factor < 0.288100E-11
 
   Difference densities algorithm switched on.
   The maximal number of linear combinations of
   difference densities is          20 .

 DIIS switched on: error vector is FDS-SDF
 Max. Iterations for DIIS is     :   4
 DIIS matrix (see manual) 
    Scaling factor of diagonals  :  1.200
    threshold for scaling factor :  0.000

 scf convergence criterion : increment of total energy < .1000000D-06
                  and increment of one-electron energy < .1000000D-03

  MOs are in ASCII format !


 automatic virtual orbital shift switched on 
      shift if e(lumo)-e(homo) < 0.10000000    


 reading orbital data $scfmo  from file mos
 orbital characterization : scfconv=7

 DSCF restart information will be dumped onto file mos


 Starting SCF iterations

          Overall gridpoints after grid construction =         13507

 ITERATION  ENERGY          1e-ENERGY        2e-ENERGY     RMS[dD(SAO)]   TOL
   1  -1152.0085445799    -2217.9491210     746.44259414    0.000D+00 0.287D-10
                            Exc = -58.3986003147     Coul =  823.581779952    
                            exK = -18.7405855004    
                              N = 57.997437887    
                            current damping = 0.700
 
          max. resid. norm for Fia-block=  5.701D-02 for orbital     18a         
          max. resid. fock norm         =  2.257D-01 for orbital    107a         

 ITERATION  ENERGY          1e-ENERGY        2e-ENERGY     RMS[dD(SAO)]   TOL
   2  -1152.0231548451    -2218.1931046     746.67196746    0.200D-02 0.182D-10
                            Exc = -58.4107275541      Eck =  805.082695017    
                              N = 57.997443730    
                            current damping = 0.650
 
          Norm of current diis error: 0.12454    
          max. resid. norm for Fia-block=  2.904D-02 for orbital     17a         
          max. resid. fock norm         =  1.164D-01 for orbital    105a         

 ITERATION  ENERGY          1e-ENERGY        2e-ENERGY     RMS[dD(SAO)]   TOL
   3  -1152.0258880490    -2218.1605069     746.63663652    0.115D-02 0.149D-10
                            Exc = -58.4053827881      Eck =  805.042019307    
                              N = 57.997453026    
                            current damping = 0.600
 
          Norm of current diis error: 0.90928E-01
          max. resid. norm for Fia-block=  1.361D-02 for orbital     20a         
          max. resid. fock norm         =  3.988D-02 for orbital    105a         

 ITERATION  ENERGY          1e-ENERGY        2e-ENERGY     RMS[dD(SAO)]   TOL
   4  -1152.0273292627    -2218.1000756     746.57476406    0.512D-03 0.135D-10
                            Exc = -58.4039513634      Eck =  804.978715428    
                              N = 57.997456203    
                            current damping = 0.450
 
          Norm of current diis error: 0.20814E-01
          max. resid. norm for Fia-block=  4.649D-03 for orbital     20a         
          max. resid. fock norm         =  1.803D-02 for orbital     84a         

 ITERATION  ENERGY          1e-ENERGY        2e-ENERGY     RMS[dD(SAO)]   TOL
   5  -1152.0274532498    -2218.1896504     746.66421487    0.194D-03 0.125D-10
                            Exc = -58.4071278910      Eck =  805.071342765    
                              N = 57.997458503    
                            current damping = 0.500
 
          Norm of current diis error: 0.75975E-02
          max. resid. norm for Fia-block=  1.594D-03 for orbital     17a         
          max. resid. fock norm         =  6.482D-03 for orbital    105a         
          mo-orthogonalization: Cholesky decomposition

 ITERATION  ENERGY          1e-ENERGY        2e-ENERGY     RMS[dD(SAO)]   TOL
   6  -1152.0274644104    -2218.1156271     746.59018039    0.792D-04 0.121D-10
                            Exc = -58.4064187197      Eck =  804.996599115    
                              N = 57.997457405    
                            current damping = 0.550
 
          Norm of current diis error: 0.62370E-02
          max. resid. norm for Fia-block=  5.832D-04 for orbital     21a         
          max. resid. fock norm         =  2.593D-03 for orbital    105a         

 ITERATION  ENERGY          1e-ENERGY        2e-ENERGY     RMS[dD(SAO)]   TOL
   7  -1152.0274702959    -2218.1436666     746.61821401    0.380D-04 0.119D-10
                            Exc = -58.4054200823      Eck =  805.023634091    
                              N = 57.997459147    
                            current damping = 0.600
 
          Norm of current diis error: 0.22825E-02
          max. resid. norm for Fia-block=  2.850D-04 for orbital     20a         
          max. resid. fock norm         =  8.379D-04 for orbital    104a         

 ITERATION  ENERGY          1e-ENERGY        2e-ENERGY     RMS[dD(SAO)]   TOL
   8  -1152.0274711201    -2218.1498487     746.62439525    0.132D-04 0.116D-10
                            Exc = -58.4061992226      Eck =  805.030594475    
                              N = 57.997458933    
                            current damping = 0.450
 
          Norm of current diis error: 0.58122E-03
          max. resid. norm for Fia-block=  1.123D-04 for orbital     21a         
          max. resid. fock norm         =  2.946D-04 for orbital    104a         

 ITERATION  ENERGY          1e-ENERGY        2e-ENERGY     RMS[dD(SAO)]   TOL
   9  -1152.0274711733    -2218.1519530     746.62649953    0.609D-05 0.115D-10
                            Exc = -58.4062430360      Eck =  805.032742563    
                              N = 57.997458939    
                            current damping = 0.300
 
          Norm of current diis error: 0.46907E-03
          max. resid. norm for Fia-block=  3.728D-05 for orbital     17a         
          max. resid. fock norm         =  1.233D-04 for orbital    104a         

 ITERATION  ENERGY          1e-ENERGY        2e-ENERGY     RMS[dD(SAO)]   TOL
  10  -1152.0274712048    -2218.1487879     746.62333437    0.319D-05 0.113D-10
                            Exc = -58.4061991188      Eck =  805.029533486    
                              N = 57.997458925    
                            current damping = 0.350
 
          Norm of current diis error: 0.17118E-03
          max. resid. norm for Fia-block=  1.840D-05 for orbital     21a         
          max. resid. fock norm         =  2.146D-05 for orbital     21a         
          mo-orthogonalization: Cholesky decomposition

 ITERATION  ENERGY          1e-ENERGY        2e-ENERGY     RMS[dD(SAO)]   TOL
  11  -1152.0274712070    -2218.1504638     746.62501024    0.150D-05 0.111D-10
                            Exc = -58.4061999676      Eck =  805.031210206    
                              N = 57.997458980    
                            current damping = 0.400
 
          Norm of current diis error: 0.14721E-03
          max. resid. norm for Fia-block=  8.693D-06 for orbital     19a         
          max. resid. fock norm         =  9.833D-06 for orbital     24a         

 ITERATION  ENERGY          1e-ENERGY        2e-ENERGY     RMS[dD(SAO)]   TOL
  12  -1152.0274712098    -2218.1501561     746.62470254    0.717D-06 0.108D-10
                            Exc = -58.4062296197      Eck =  805.030932164    
                              N = 57.997458950    
                            current damping = 0.450
 
          Norm of current diis error: 0.35742E-04
          max. resid. norm for Fia-block=  3.990D-06 for orbital     18a         
          max. resid. fock norm         =  4.872D-06 for orbital     27a         

 ENERGY & DENSITY CONVERGED !

          Overall gridpoints after grid construction =         48629

 ITERATION  ENERGY          1e-ENERGY        2e-ENERGY     RMS[dD(SAO)]   TOL
  13  -1152.0278752551    -2218.1500030     746.62414540    0.269D-06 0.106D-10
                            Exc = -58.4066191377      Eck =  805.030764536    
                              N = 58.000091204    
                            current damping = 0.300
 
          Norm of current diis error: 0.17791E-04
          max. resid. norm for Fia-block=  1.494D-06 for orbital     20a         
          max. resid. fock norm         =  1.856D-06 for orbital     20a         

 End of SCF iterations

   convergence criteria satisfied after   13 iterations


                  ------------------------------------------ 
                 |  total energy      =  -1152.02787525514  |
                  ------------------------------------------ 
                 :  kinetic energy    =   1147.63070011321  :
                 :  potential energy  =  -2299.65857536836  :
                 :  virial theorem    =      1.99618310005  :
                 :  wavefunction norm =      1.00000000000  :
                  .......................................... 


 orbitals $scfmo  will be written to file mos

    irrep                 25a         26a         27a         28a         29a   
 eigenvalues H         -0.33720    -0.33277    -0.31625    -0.29928    -0.29610
            eV          -9.1757     -9.0553     -8.6058     -8.1438     -8.0574
 occupation              2.0000      2.0000      2.0000      2.0000      2.0000 

    irrep                 30a         31a         32a         33a         34a   
 eigenvalues H         -0.05246    -0.04792    -0.03243    -0.00741     0.00168
            eV          -1.4276     -1.3039     -0.8824     -0.2018      0.0456
 
 
 
 
 ==============================================================================
                           electrostatic moments
 ==============================================================================

 reference point for electrostatic moments:    0.00000   0.00000   0.00000

 
              nuc           elec       ->  total
 ------------------------------------------------------------------------------
                          charge      
 ------------------------------------------------------------------------------
          58.000000     -58.000000       0.000000
 
 ------------------------------------------------------------------------------
                       dipole moment  
 ------------------------------------------------------------------------------
   x       0.590441      -0.106065       0.484376
   y       0.014497      -0.204457      -0.189960
   z       0.666292      -0.304876       0.361416
 
   | dipole moment | =     0.6335 a.u. =     1.6102 debye 
 
 ------------------------------------------------------------------------------
                     quadrupole moment
 ------------------------------------------------------------------------------
  xx     191.101819    -212.101132     -20.999312
  yy     155.150070    -184.404883     -29.254813
  zz     137.749381    -166.209806     -28.460425
  xy     -11.749544      11.476676      -0.272868
  xz       7.369763      -2.784723       4.585040
  yz      -5.421855       5.858496       0.436640
 
     1/3  trace=     -26.238183
     anisotropy=      11.228953
 
 ==============================================================================
 


    ------------------------------------------------------------------------
         total  cpu-time :  12.09 seconds
         total wall-time :  12.18 seconds
    ------------------------------------------------------------------------

   ****  ridft : all done  ****


    2018-03-07 23:21:59.343 

fine, there is no data group "$actual step"
next step = rdgrad
 hostname is c-5-15.local
           Doing BLAS/Lapack in the master proc. with  8 CPUs.
           SMPCPUS    set: Shared-memory Parallelization with   8 CPUs.

           SMP Parallelization Reference:
           C. van Wullen, J. Comput. Chem. 32 (2011) 1195--1201

 egrad (c-5-15.local) : TURBOMOLE V7.1 ( ) 5 Apr 2016 at 11:29:09
 Copyright (C) 2016 TURBOMOLE GmbH, Karlsruhe


    2018-03-07 23:21:59.740 




                               e g r a d

                       quantum chemistry group
                       university of karlsruhe
                               germany


             integral direct evaluation of excited state
                     and polarizability gradients
                 and first-order nonadiabatic couplings



          references (see also programs escf, dscf and ridft) 

          review 
          F. Furche and D. Rappoport,  
          "Density functional methods for excited states: 
          equilibrium structure and electronic spectra",
          ch. III of "Computational Photochemistry", ed. by 
          M. Olivucci, vol. 16 of "Theoretical and Computational 
          Chemistry", Elsevier, Amsterdam, 2005.

          RI-J method 
          D. Rappoport and F. Furche, 
          J. Chem. Phys. 122 (2005), 064105.

          Lagrangian method, implementation, benchmarks 
          F. Furche and R. Ahlrichs,
          J. Chem. Phys. 117 (2002), 7433;
          J. Chem. Phys. 121 (2004), 12772 (E).

          Polarizability derivatives, Raman intensities 
          D. Rappoport and F. Furche, 
          J. Chem. Phys. 126 (2007), 201104.

          First-order nonadiabatic couplings 
          R. Send and F. Furche, 
          J. Chem. Phys. 132 (2010), 044107.
                                     




              +--------------------------------------------------+
              | Atomic coordinate, charge and isotop information |
              +--------------------------------------------------+

                    atomic coordinates            atom    charge  isotop
          0.03228174   -0.04597641   -0.01989139    ti    22.000     0
          1.00327399   -2.74223707    1.88818271    o      8.000     0
         -2.78766907   -0.74184034   -1.84747292    o      8.000     0
         -5.08041816   -0.93717779   -2.29597756    h      1.000     0
         -1.15018353    2.66403669    1.85852822    o      8.000     0
         -0.03539489    4.10957131    1.84459878    h      1.000     0
          2.75493536    0.96723919   -1.91938826    o      8.000     0
          4.45190678   -0.43939875   -1.84924012    h      1.000     0
          1.98129485   -2.88460406    3.56572318    h      1.000     0
 
       center of nuclear mass  :   -0.00000001   -0.00000000   -0.00000002
       center of nuclear charge:    0.01018001    0.00024996    0.01148779

              +--------------------------------------------------+
              |               basis set information              |
              +--------------------------------------------------+

              we will work with the 1s 3p 5d 7f 9g ... basis set
              ...i.e. with spherical basis functions...

   type   atoms  prim   cont   basis
   ---------------------------------------------------------------------------
    ti       1     73     31   def2-SVP   [5s3p2d1f|14s9p5d1f]
    o        4     24     14   def2-SVP   [3s2p1d|7s4p1d]
    h        4      7      5   def2-SVP   [2s1p|4s1p]
   ---------------------------------------------------------------------------
   total:    9    197    107
   ---------------------------------------------------------------------------

   total number of primitive shells          :   46
   total number of contracted shells         :   47
   total number of cartesian basis functions :  116
   total number of SCF-basis functions       :  107


 residuum convergence criterium   :  0.10E-04


 integral neglect threshold       :  0.29E-10
 integral storage threshold THIZE :  0.10E-04
 integral storage threshold THIME :         5

 
             FOUND RI-J FLAG !
 
  
 AUXILIARY BASIS SET information:

              we will work with the 1s 3p 5d 7f 9g ... basis set
              ...i.e. with spherical basis functions...

   type   atoms  prim   cont   basis
   ---------------------------------------------------------------------------
    ti       1    107     89   def2-SVP   [8s5p5d2f3g|19s5p5d3f3g]
    o        4     70     49   def2-SVP   [6s4p3d1f1g|12s5p4d2f1g]
    h        4     16     11   def2-SVP   [3s1p1d|5s2p1d]
   ---------------------------------------------------------------------------
   total:    9    451    329
   ---------------------------------------------------------------------------

   total number of primitive shells          :   67
   total number of contracted shells         :  103
   total number of cartesian basis functions :  410
   total number of SCF-basis functions       :  329

 RPA SINGLET-EXCITATION-CALCULATION 
 
             FOUND DFT-FLAG !
 
 
 FOUND Nonadiabatic Coupling-FLAG !
 Note: the sign convention for NACME changed
 such that <0|d/dx|n> is now computed.

 symmetry group of the molecule :   c1 

 the group has the following generators :
   c1(z)

    1 symmetry operations found

 there are 1 real representations :   a   

 maximum number of shells which are related by symmetry :  1

 IRREP of excited state :   a   
 

 determining totally symmetric integral contributions 
    - equivalent to irreducible tensor elements - 
 which can be formed within each triple of representations :

             representation triple      contributions

              a     a     a               1

    mo occupation :
   irrep   mo's   occupied
    a      107       29
 
 number of basis functions   :          107
 number of occupied orbitals :           29
 
  
           ------------------
           density functional
           ------------------
 PBE0 hybrid functional
 exchange:    3/4 (LDA+PBE) + 1/4 HF
 correlation: LDA (PW) + PBE
 iterations will be done with small grid
  
 spherical integration : Lebedev's spherical grid
 spherical gridsize    :           3
    i.e. gridpoints    :         302
 value for diffuse not defined
 radial integration    : Chebyshev 2nd kind (scaling 3)
 radial gridsize       :           3
 integration cells     :           9
 partition function    : becke
 partition sharpness   :           3
  
 
 Derivatives of quadrature weights will be included
 
  
           ----------------------
               RI - INFORMATION
           ----------------------

 biggest AO integral is expected to be    13.493451081

 Threshold for integral neglect (rithr2):   0.29E-10
 Threshold for integral neglect (rithr1):   0.29E-10

 Contributions to RI integral batches: 
  neglected integral batches:          71
  direct contribution:                  0
  memory contribution:        1057
 Core memory available (ricore)            500 MiB
 Core memory needed for (P|Q) and Cholesky 1 MiB
 Core memory used for integrals            21 MiB
  
 ****************************************
 Memory allocated for RIDFT 22 MiB
 ****************************************
                                            
  MOs are in ASCII format !


 reading orbital data $scfmo  from file mos
 orbital characterization : scfconv=7
 preparing numerical integration ....
          Overall gridpoints after grid construction =         13507
 Ordering of quadrature gridpoints disabled.

 Calculating ground state density on molecular grid

 Integral of ground state density: N =   57.99745895402044    



 number of non-frozen orbitals          :   107
 number of non-frozen occupied orbitals :    29



                        -------------------
                         excitation vector 
                        -------------------


 dimension of super-tensorspace: 2

          IRREP   tensor space dimension   number of roots

           a              2262                   1

 maximum number of Davidson iterations set to   25


 machine precision: 2.22D-16


 logfile sing_a    exists already

 found      1 converged vectors on sing_a   
 read       1 vectors from logfile sing_a   



                       Nonorthonormal Krylov Space Iteration


 total number of roots to be determined:   1


 maximum core memory set to   500 MB,
 corresponding to     2317 vectors in CAO basis


 maximum number of simultaneously treated vectors (including degeneracy):        1


 Iteration IRREP Converged      Max. Euclidean
                 roots          residual norm

    1       a        0        1.034181763668459D-01
 
    2       a        0        6.538953415388787D-02
 
    3       a        0        3.534380881759862D-02
 
    4       a        0        2.744586858861878D-02
 
    5       a        0        1.557555255710236D-02
 
    6       a        0        1.181395105016993D-02
 
    7       a        0        9.352296052681687D-03
 
    8       a        0        1.467957578641365D-02
 
    9       a        0        1.259310845819853D-02
 
   10       a        0        1.008459268542674D-02
 
   11       a        0        1.185122982187685D-02
 
   12       a        0        1.400747951991861D-02
 
   13       a        0        1.625830931616105D-02
 
   14       a        0        1.273075798411175D-02
 
   15       a        0        4.280044484282450D-03
 
   16       a        0        2.595708578781130D-03
 
   17       a        0        2.591085828021067D-03
 
   18       a        0        2.782588987077748D-03
 
   19       a        0        1.938456673745722D-03
 
   20       a        0        9.581240697427412D-04
 
   21       a        0        4.476728267219542D-04
 
   22       a        0        1.714897292980785D-04
 
   23       a        0        1.047215120233684D-04
 
   24       a        0        5.256693953372602D-05
 
   25       a        0        1.662572620178374D-05
 


 Warning! No convergence within  25 iterations.
 Unless you have specified a very low $escfiterlimit/$forceiterlimit, 
 this is a reason to worry!



 IRREP   Vector     Eigenvalue           Euclidean residual norm

  a         1    1.794582628787039D-01    1.662572620178374D-05
 

 Deallocation failure for file unit arrays in <egrad>


========================
 internal module stack: 
------------------------
    egrad
========================

  abnormal termination
 egrad ended abnormally
error in gradient step (1)
