
OPTIMIZATION CYCLE 424
Wed Mar  7 23:48:34 PST 2018
 hostname is c-6-232.local

 frog (c-6-232.local) : TURBOMOLE V7.1 ( ) 5 Apr 2016 at 11:29:09
 Copyright (C) 2016 TURBOMOLE GmbH, Karlsruhe


    2018-03-07 23:48:34.492 


 frog (c-6-232.local) : TURBOMOLE V7.1 ( ) 5 Apr 2016 at 11:29:09
 Copyright (C) 2016 TURBOMOLE GmbH, Karlsruhe


    2018-03-07 23:48:34.493 

 
       `--._            A b     I n i t i o           .-
            `.  M o l e c u l a r   D y n a m i c s  /
              \               .-.       .           / 
               \             /   \     / `.        /  
                `-----._    /     `._.'    `--.__.'   
                        `--'                          
 
 

Reading information from mdmaster                                                                        
 
 =========================================
 TDDFT-SURFACE HOPPING switched on
 Tapavicza, Meyer, and Furche,
 Phys. Chem. Chem. Phys. 13 (2011), 20986.
 =========================================
 
 found keyword $gap_threshold; hop is enforced if gap <  0.500000000000000     
Reading log history information from mdmaster                                                                        
Reading input data from mdlog.2                                                                         
Checking for non-default isotopic masses in control                                                                         
 
No constraints requested.
Reading status from mdmaster                                                                        
Reading actions from mdmaster                                                                        
Getting gradients from control                                                                         
 non-adiabatic coupling vector
 -6.031075253431400E-002 -3.565785509987500E-002  2.111838435862200E-002
  1.215420498423900E-002 -5.754476190148700E-003 -1.228491754694000E-002
 -3.538086652799400E-002  1.932577091581900E-002 -2.233106249873500E-002
 -1.278512724063000E-002  3.836241166181300E-003  1.991870189717700E-002
  8.703698929409500E-003  2.093581759357500E-002  8.116503994686100E-003
 -3.192867918330300E-004 -3.168034974409800E-003 -7.306770730492400E-003
  4.040054399547900E-002 -4.600039259927200E-002  3.825882233956800E-003
  4.235904445232900E-002 -4.243861526869200E-002 -6.547808772275600E-002
 -1.178767796100800E-003 -8.696223314738400E-003 -4.542166354172800E-003
 leap: Read last 2 entries of RUN.dat
 Old state:           0
 New state:           0
 Propagating Coefficients
 
 ==============Surface Hopping Information================
 
 Probability from           1 to           2 : -1.071645698521431E-003
 Random number   0.579271790216723     
 
 COEFF OF STATE           1 = (0.997141228812244,2.420347950335740E-002)
 COEFF OF STATE           2 = (6.882998476946134E-002,1.964674475164871E-002)
 
 POPULATION OF STATE           1 =  0.994876438617262     
 POPULATION OF STATE           2 =  5.123561382700716E-003
 SUM OF ALL POPULATIONS =  0.999999999999963     
 
 =========================================================
 
Scaling KE by    1.00076954995    
 
Generating $log data for last completed MD step:                                
t=   16920.0000000                                                              
 0.386720035361E-01  0.861287413756E-01 -0.593588669444E-01 ti                  
 0.884811882180      -2.67553087220       1.53190219927     o                   
 -2.54375332718     -0.990649948368      -2.05997962265     o                   
 -3.81734239034      -1.81396428313      -3.09767809822     h                   
 -1.05881375488       2.07820217354       2.36023756162     o                   
-0.430830889962       3.68280386359       2.71987351775     h                   
  2.75122317950       1.28415347176      -1.65145990012     o                   
 0.952853594187       2.38625408774      -2.83476755910     h                   
 0.926339742025      -3.52546012971       3.16515031327     h                   
  40.0000000000       0.00000000000                                             
ti        0.701079233322E-03  0.868404577250E-04 -0.333074801734E-03            
o        -0.734104880895E-03  0.196241487266E-03  0.205024472774E-03            
o        -0.215969397736E-04 -0.724755431589E-04 -0.432770346162E-03            
h        -0.464703998959E-03 -0.106710631907E-02  0.109474123114E-02            
o         0.102272208873E-04  0.156193402291E-03  0.385872135393E-03            
h         0.234712153630E-02 -0.177463109698E-02  0.498607158742E-04            
o        -0.193086261463E-02 -0.214810484983E-03  0.849448479332E-03            
h         0.289199959517E-02 -0.319273825174E-02 -0.149737282756E-03            
h         0.439063155667E-02  0.873606913395E-03 -0.115985763176E-02            
 0.163277347355      -1152.04057987       0.00000000000                         
 0.344100187523E-01  0.593639598902E-01 -0.563980417522E-02                     
-0.132034456781E-01  0.180143846377E-01 -0.182451028711E-01                     
-0.489552832874E-02 -0.130188848797E-01  0.445761348772E-02                     
-0.131204380539E-01 -0.724602231531E-02 -0.102245329064E-01                     
 0.175008792559E-01  0.947647864218E-02 -0.186273391531E-03                     
-0.117250565966E-01 -0.330766012592E-01 -0.112837198787E-01                     
 0.807379328267E-01 -0.604133127841E-01  0.616541597394E-01                     
-0.909279602177E-01  0.366044891477E-01 -0.339391999728E-01                     
 0.122359803271E-02 -0.970449107203E-02  0.134068599786E-01                     
 

   Time t=   16920.0000000     a.u. (  409.260960000     fs)

   e x e c u t i n g    M D   s t e p   (leapfrog algorithm)

   Number of MD steps left:    1076
 
   Time t=   16960.0000000     a.u. (  410.228480000     fs)

 
Provisional $current data:                                                      
t=   16960.0000000                                                              
 0.660846376739E-01  0.885145641126E-01 -0.725785142568E-01 ti                  
 0.856172028704      -2.66866948285       1.54110410553     o                   
 -2.54434863582     -0.992834753350      -2.07753498142     o                   
 -3.82450543305      -1.85033878814      -3.04498505057     h                   
 -1.05936476525       2.08393002949       2.37568266600     o                   
-0.326735992394       3.64062132021       2.73169367188     h                   
  2.66955938746       1.27887533004      -1.62086431156     o                   
  1.14771253548       2.22666981548      -2.81120320949     h                   
  1.10089951007      -3.48206530084       3.10708147803     h                   
  40.0000000000       0.00000000000                                             
ti        0.685579495124E-03  0.596685141324E-04 -0.330618323091E-03            
o        -0.716271781397E-03  0.171600723425E-03  0.230136156129E-03            
o        -0.148884413021E-04 -0.546411369739E-04 -0.439052808312E-03            
h        -0.179144958424E-03 -0.909712457887E-03  0.131783296804E-02            
o        -0.137805585484E-04  0.143251486535E-03  0.386276153276E-03            
h         0.260337357443E-02 -0.105496927621E-02  0.295617533774E-03            
o        -0.204238020458E-02 -0.132004305685E-03  0.765183967886E-03            
h         0.487334759298E-02 -0.399114161221E-02  0.589335371045E-03            
h         0.436567303386E-02  0.108528807246E-02 -0.145227935935E-02            
 
    50 energy records for statistics read from mdlog.2                                                                         
       Total Energy (H):
              current value   -1151.87730252    
                    average   -1151.87725002    
         standard deviation   0.601730496617E-02
                      drift  -0.550266922801E-06
        jump from last step   0.626732069122E-04
 
     Kinetic Energy (H):
              current value   0.163277347355    
                    average   0.116708705653    
         standard deviation   0.316357949894E-01
                      drift  -0.241702897313E-03
 avg. quasi-temperature (K)    3509.55600522    
      number of constraints       0
 
         Pressure (GPa):
              current value    0.00000000000    
                    average    0.00000000000    
 
 
   approx integration error   0.455176711633E-01
 
Estimated integration error by reading last steps from mdlog.2                  
 
Generating $log data for last completed MD step:                                
t=   16920.0000000                                                              
 0.386720035361E-01  0.861287413756E-01 -0.593588669444E-01 ti                  
 0.884811882180      -2.67553087220       1.53190219927     o                   
 -2.54375332718     -0.990649948368      -2.05997962265     o                   
 -3.81734239034      -1.81396428313      -3.09767809822     h                   
 -1.05881375488       2.07820217354       2.36023756162     o                   
-0.430830889962       3.68280386359       2.71987351775     h                   
  2.75122317950       1.28415347176      -1.65145990012     o                   
 0.952853594187       2.38625408774      -2.83476755910     h                   
 0.926339742025      -3.52546012971       3.16515031327     h                   
  40.0000000000       0.00000000000                                             
ti        0.701079233322E-03  0.868404577250E-04 -0.333074801734E-03            
o        -0.734104880895E-03  0.196241487266E-03  0.205024472774E-03            
o        -0.215969397736E-04 -0.724755431589E-04 -0.432770346162E-03            
h        -0.464703998959E-03 -0.106710631907E-02  0.109474123114E-02            
o         0.102272208873E-04  0.156193402291E-03  0.385872135393E-03            
h         0.234712153630E-02 -0.177463109698E-02  0.498607158742E-04            
o        -0.193086261463E-02 -0.214810484983E-03  0.849448479332E-03            
h         0.289199959517E-02 -0.319273825174E-02 -0.149737282756E-03            
h         0.439063155667E-02  0.873606913395E-03 -0.115985763176E-02            
 0.163277347355      -1152.04057987       0.00000000000                         
 0.344100187523E-01  0.593639598902E-01 -0.563980417522E-02                     
-0.132034456781E-01  0.180143846377E-01 -0.182451028711E-01                     
-0.489552832874E-02 -0.130188848797E-01  0.445761348772E-02                     
-0.131204380539E-01 -0.724602231531E-02 -0.102245329064E-01                     
 0.175008792559E-01  0.947647864218E-02 -0.186273391531E-03                     
-0.117250565966E-01 -0.330766012592E-01 -0.112837198787E-01                     
 0.807379328267E-01 -0.604133127841E-01  0.616541597394E-01                     
-0.909279602177E-01  0.366044891477E-01 -0.339391999728E-01                     
 0.122359803271E-02 -0.970449107203E-02  0.134068599786E-01                     
 
Generated $current data for new MD step:                                        
t=   16960.0000000                                                              
 0.660846376739E-01  0.885145641126E-01 -0.725785142568E-01 ti                  
 0.856172028704      -2.66866948285       1.54110410553     o                   
 -2.54434863582     -0.992834753350      -2.07753498142     o                   
 -3.82450543305      -1.85033878814      -3.04498505057     h                   
 -1.05936476525       2.08393002949       2.37568266600     o                   
-0.326735992394       3.64062132021       2.73169367188     h                   
  2.66955938746       1.27887533004      -1.62086431156     o                   
  1.14771253548       2.22666981548      -2.81120320949     h                   
  1.10089951007      -3.48206530084       3.10708147803     h                   
  40.0000000000       0.00000000000                                             
ti        0.685579495124E-03  0.596685141324E-04 -0.330618323091E-03            
o        -0.716271781397E-03  0.171600723425E-03  0.230136156129E-03            
o        -0.148884413021E-04 -0.546411369739E-04 -0.439052808312E-03            
h        -0.179144958424E-03 -0.909712457887E-03  0.131783296804E-02            
o        -0.137805585484E-04  0.143251486535E-03  0.386276153276E-03            
h         0.260337357443E-02 -0.105496927621E-02  0.295617533774E-03            
o        -0.204238020458E-02 -0.132004305685E-03  0.765183967886E-03            
h         0.487334759298E-02 -0.399114161221E-02  0.589335371045E-03            
h         0.436567303386E-02  0.108528807246E-02 -0.145227935935E-02            
 
Logging MD run data ($log) to file mdlog.2                                                                         
Writing data for next step ($current) to mdlog.2                                                                         

    2018-03-07 23:48:35.185 

         total cpu-time :   0.69 seconds
         total wall-time :   0.69 seconds

          ******************************************************



    ------------------------------------------------------------------------
         total  cpu-time :   0.69 seconds
         total wall-time :   0.69 seconds
    ------------------------------------------------------------------------

   ****  frog : all done  ****


    2018-03-07 23:48:35.185 

 operating system is UNIX !
 hostname is c-6-232.local

 ridft (c-6-232.local) : TURBOMOLE V7.1 ( ) 5 Apr 2016 at 11:29:09
 Copyright (C) 2016 TURBOMOLE GmbH, Karlsruhe


    2018-03-07 23:48:35.346 



                                  r i d f t

                        DFT program with RI approximation 
                                for coulomb part 




                                                 
                                 References:     
                                                 
          TURBOMOLE:                             
              R. Ahlrichs, M. Baer, M. Haeser, H. Horn, and
              C. Koelmel
              Electronic structure calculations on workstation
              computers: the program system TURBOMOLE
              Chem. Phys. Lett. 162: 165 (1989)
          Density Functional:                              
              O. Treutler and R. Ahlrichs                      
              Efficient Molecular Numerical Integration Schemes
              J. Chem. Phys. 102: 346 (1995)                   
          Parallel Version:                                
              Performance of parallel TURBOMOLE for Density    
              Functional Calculations                          
              M. v. Arnim and R. Ahlrichs                      
              J. Comp. Chem. 19: 1746 (1998)                   
          RI-J Method:                                     
              Auxiliary Basis Sets to approximate Coulomb      
              Potentials                                       
              Chem. Phys. Lett. 240: 283 (1995)                
              K. Eichkorn, O. Treutler, H. Oehm, M. Haeser     
              and R. Ahlrichs                                  
              Chem. Phys. Lett. 242: 652 (1995)                
                                                           
              Auxiliary Basis Sets for Main Row Atoms and their
              Use to approximate Coulomb Potentials            
              K. Eichkorn, F. Weigend, O. Treutler and         
              R. Ahlrichs                                      
              Theo. Chem. Acc. 97: 119 (1997)                   
                                                           
              Accurate Coulomb-fitting basis sets for H to Rn 
              F. Weigend                                        
              Phys. Chem. Chem. Phys. 8: 1057 (2006)            
                                                           
          Multipole accelerated RI-J (MARI-J):             
              Fast evaluation of the Coulomb potential for     
              electron densities using multipole accelerated   
              resolution of identity approximation             
              M. Sierka, A. Hogekamp and R. Ahlrichs           
              J. Chem. Phys. 118: 9136 (2003)                  
          RI-JK Method:                                     
              A fully direct RI-HF algorithm: Implementation,
              optimised auxiliary basis sets, demonstration of
              accuracy and efficiency                         
              F. Weigend                                      
              Phys. Chem. Chem. Phys. 4: 4285 (2002)           
          Two-component HF and DFT with spin-orbit coupling:  
              Self-consistent treatment of spin-orbit         
              interactions with efficient Hartree-Fock and    
              density functional methods                      
              M. K. Armbruster, F. Weigend, C. van Wüllen and 
              W. Klopper                                      
              Phys. Chem. Chem. Phys. 10: 1748 (2008)         
          Relativistic all-electron 2c calculations           
              An efficient implementation of two-component    
              relativistic exact-decoupling methods for large 
              molecules                                       
              D. Peng, N. Middendorf, F. Weigend, M. Reiher   
              J. Chem. Phys. 138, 184105 (2013)               
                                         


 


              +--------------------------------------------------+
              |      general information about current run       |
              +--------------------------------------------------+

 

 DENSITY CONVERGENCE CHECK SWITCHED ON !
 SCF CONVERGENCE IF RMS(delta[D]) <     0.1000000000E-06

 PBE0 hybrid functional
 exchange:    3/4 (LDA+PBE) + 1/4 HF
 correlation: LDA (PW) + PBE
 A Hybrid-DFT calculation using the RI-J approximation will be carried out.
 Allocatable memory for RI due to $ricore (MB):         500


              +--------------------------------------------------+
              | Atomic coordinate, charge and isotop information |
              +--------------------------------------------------+

                    atomic coordinates            atom    charge  isotop
          0.06608464    0.08851456   -0.07257851    ti    22.000     0
          0.85617203   -2.66866948    1.54110411    o      8.000     0
         -2.54434864   -0.99283475   -2.07753498    o      8.000     0
         -3.82450543   -1.85033879   -3.04498505    h      1.000     0
         -1.05936477    2.08393003    2.37568267    o      8.000     0
         -0.32673599    3.64062132    2.73169367    h      1.000     0
          2.66955939    1.27887533   -1.62086431    o      8.000     0
          1.14771254    2.22666982   -2.81120321    h      1.000     0
          1.10089951   -3.48206530    3.10708148    h      1.000     0
 
       center of nuclear mass  :   -0.00000004   -0.00000004    0.00000005
       center of nuclear charge:   -0.01849350    0.00159684    0.00229240

              +--------------------------------------------------+
              |               basis set information              |
              +--------------------------------------------------+

              we will work with the 1s 3p 5d 7f 9g ... basis set
              ...i.e. with spherical basis functions...

   type   atoms  prim   cont   basis
   ---------------------------------------------------------------------------
    ti       1     73     31   def2-SVP   [5s3p2d1f|14s9p5d1f]
    o        4     24     14   def2-SVP   [3s2p1d|7s4p1d]
    h        4      7      5   def2-SVP   [2s1p|4s1p]
   ---------------------------------------------------------------------------
   total:    9    197    107
   ---------------------------------------------------------------------------

   total number of primitive shells          :   46
   total number of contracted shells         :   47
   total number of cartesian basis functions :  116
   total number of SCF-basis functions       :  107


 integral neglect threshold       :  0.29E-10
 integral storage threshold THIZE :  0.10E-04
 integral storage threshold THIME :         5

 RI-J AUXILIARY BASIS SET information:

              we will work with the 1s 3p 5d 7f 9g ... basis set
              ...i.e. with spherical basis functions...

   type   atoms  prim   cont   basis
   ---------------------------------------------------------------------------
    ti       1    107     89   def2-SVP   [8s5p5d2f3g|19s5p5d3f3g]
    o        4     70     49   def2-SVP   [6s4p3d1f1g|12s5p4d2f1g]
    h        4     16     11   def2-SVP   [3s1p1d|5s2p1d]
   ---------------------------------------------------------------------------
   total:    9    451    329
   ---------------------------------------------------------------------------

   total number of primitive shells          :   67
   total number of contracted shells         :  103
   total number of cartesian basis functions :  410
   total number of SCF-basis functions       :  329


 symmetry group of the molecule :   c1 

 the group has the following generators :
   c1(z)

    1 symmetry operations found

 there are 1 real representations :   a   

 maximum number of shells which are related by symmetry :  1


    mo occupation :
   irrep   mo's   occupied
    a      107       29
 
 number of basis functions   :          107
 number of occupied orbitals :           29
 
  
           ------------------
           density functional
           ------------------
 PBE0 hybrid functional
 exchange:    3/4 (LDA+PBE) + 1/4 HF
 correlation: LDA (PW) + PBE
 iterations will be done with small grid
  
 spherical integration : Lebedev's spherical grid
 spherical gridsize    :           3
    i.e. gridpoints    :         302
 value for diffuse not defined
 radial integration    : Chebyshev 2nd kind (scaling 3)
 radial gridsize       :           3
 integration cells     :           9
 partition function    : becke
 partition sharpness   :           3
  

 biggest AO integral is expected to be    13.493451081
  
           ------------------------
               RI-J - INFORMATION
           ------------------------
 Contributions to RI integral batches: 
  neglected integral batches:          62
  direct contribution:                  0
  memory contribution:        1066
 Memory core needed for (P|Q) and Cholesky      1 MByte
 Memory core minimum needed except of (P|Q)     1 MByte
 Total minimum memory core needed (sum)         1 MByte
  
 ****************************************
 Memory allocated for RI-J    22 MByte
 ****************************************
                                            

          ------------------------
          nuclear repulsion energy  :   334.116063281    
          ------------------------

 
          -----------------
          -S,T+V- integrals
          -----------------

 1e-integrals will be neglected if expon. factor < 0.288100E-11
 
   Difference densities algorithm switched on.
   The maximal number of linear combinations of
   difference densities is          20 .

 DIIS switched on: error vector is FDS-SDF
 Max. Iterations for DIIS is     :   4
 DIIS matrix (see manual) 
    Scaling factor of diagonals  :  1.200
    threshold for scaling factor :  0.000

 scf convergence criterion : increment of total energy < .1000000D-06
                  and increment of one-electron energy < .1000000D-03

  MOs are in ASCII format !


 automatic virtual orbital shift switched on 
      shift if e(lumo)-e(homo) < 0.10000000    


 reading orbital data $scfmo  from file mos
 orbital characterization : scfconv=7

 DSCF restart information will be dumped onto file mos


 Starting SCF iterations

          Overall gridpoints after grid construction =         13502

 ITERATION  ENERGY          1e-ENERGY        2e-ENERGY     RMS[dD(SAO)]   TOL
   1  -1152.0552631040    -2246.8937228     760.72239640    0.000D+00 0.287D-10
                            Exc = -58.5990811320     Coul =  838.135360077    
                            exK = -18.8138825499    
                              N = 57.999292384    
                            current damping = 0.700
 
          max. resid. norm for Fia-block=  3.628D-02 for orbital     21a         
          max. resid. fock norm         =  1.450D-01 for orbital    104a         

 ITERATION  ENERGY          1e-ENERGY        2e-ENERGY     RMS[dD(SAO)]   TOL
   2  -1152.0617101004    -2247.0248143     760.84704096    0.145D-02 0.182D-10
                            Exc = -58.6202041111      Eck =  819.467245073    
                              N = 57.999312847    
                            current damping = 0.650
 
          Norm of current diis error: 0.81106E-01
          max. resid. norm for Fia-block=  1.440D-02 for orbital     16a         
          max. resid. fock norm         =  6.275D-02 for orbital    104a         

 ITERATION  ENERGY          1e-ENERGY        2e-ENERGY     RMS[dD(SAO)]   TOL
   3  -1152.0628332737    -2247.2027028     761.02380627    0.798D-03 0.145D-10
                            Exc = -58.6112025443      Eck =  819.635008812    
                              N = 57.999296856    
                            current damping = 0.500
 
          Norm of current diis error: 0.69986E-01
          max. resid. norm for Fia-block=  8.493D-03 for orbital     21a         
          max. resid. fock norm         =  2.124D-02 for orbital    104a         

 ITERATION  ENERGY          1e-ENERGY        2e-ENERGY     RMS[dD(SAO)]   TOL
   4  -1152.0635313489    -2247.0242796     760.84468494    0.430D-03 0.131D-10
                            Exc = -58.6162548259      Eck =  819.460939771    
                              N = 57.999306829    
                            current damping = 0.550
 
          Norm of current diis error: 0.16553E-01
          max. resid. norm for Fia-block=  2.600D-03 for orbital     21a         
          max. resid. fock norm         =  7.221D-03 for orbital    104a         

 ITERATION  ENERGY          1e-ENERGY        2e-ENERGY     RMS[dD(SAO)]   TOL
   5  -1152.0635732046    -2247.1592108     760.97957435    0.175D-03 0.126D-10
                            Exc = -58.6161761265      Eck =  819.595750473    
                              N = 57.999310497    
                            current damping = 0.600
 
          Norm of current diis error: 0.13398E-01
          max. resid. norm for Fia-block=  8.839D-04 for orbital     21a         
          max. resid. fock norm         =  2.758D-03 for orbital    104a         
          mo-orthogonalization: Cholesky decomposition

 ITERATION  ENERGY          1e-ENERGY        2e-ENERGY     RMS[dD(SAO)]   TOL
   6  -1152.0636004971    -2247.1205852     760.94092143    0.697D-04 0.122D-10
                            Exc = -58.6176959729      Eck =  819.558617407    
                              N = 57.999308597    
                            current damping = 0.650
 
          Norm of current diis error: 0.28102E-02
          max. resid. norm for Fia-block=  3.401D-04 for orbital     21a         
          max. resid. fock norm         =  1.083D-03 for orbital    104a         

 ITERATION  ENERGY          1e-ENERGY        2e-ENERGY     RMS[dD(SAO)]   TOL
   7  -1152.0636022854    -2247.1013766     760.92171102    0.252D-04 0.118D-10
                            Exc = -58.6169844405      Eck =  819.538695458    
                              N = 57.999308659    
                            current damping = 0.500
 
          Norm of current diis error: 0.13046E-02
          max. resid. norm for Fia-block=  2.231D-04 for orbital     21a         
          max. resid. fock norm         =  3.648D-04 for orbital    104a         

 ITERATION  ENERGY          1e-ENERGY        2e-ENERGY     RMS[dD(SAO)]   TOL
   8  -1152.0636026024    -2247.1012139     760.92154799    0.133D-04 0.115D-10
                            Exc = -58.6173062626      Eck =  819.538854256    
                              N = 57.999308658    
                            current damping = 0.350
 
          Norm of current diis error: 0.83981E-03
          max. resid. norm for Fia-block=  1.011D-04 for orbital     22a         
          max. resid. fock norm         =  1.607D-04 for orbital    104a         

 ITERATION  ENERGY          1e-ENERGY        2e-ENERGY     RMS[dD(SAO)]   TOL
   9  -1152.0636026961    -2247.1068760     760.92721005    0.709D-05 0.113D-10
                            Exc = -58.6172854601      Eck =  819.544495508    
                              N = 57.999308582    
                            current damping = 0.400
 
          Norm of current diis error: 0.52004E-03
          max. resid. norm for Fia-block=  3.890D-05 for orbital     21a         
          max. resid. fock norm         =  5.082D-05 for orbital     21a         

 ITERATION  ENERGY          1e-ENERGY        2e-ENERGY     RMS[dD(SAO)]   TOL
  10  -1152.0636027351    -2247.1043529     760.92468690    0.296D-05 0.110D-10
                            Exc = -58.6172617813      Eck =  819.541948677    
                              N = 57.999308648    
                            current damping = 0.450
 
          Norm of current diis error: 0.11884E-03
          max. resid. norm for Fia-block=  1.271D-05 for orbital     26a         
          max. resid. fock norm         =  1.845D-05 for orbital     16a         
          mo-orthogonalization: Cholesky decomposition

 ITERATION  ENERGY          1e-ENERGY        2e-ENERGY     RMS[dD(SAO)]   TOL
  11  -1152.0636027369    -2247.1035450     760.92387897    0.114D-05 0.108D-10
                            Exc = -58.6172503771      Eck =  819.541129348    
                              N = 57.999308592    
                            current damping = 0.300
 
          Norm of current diis error: 0.90013E-04
          max. resid. norm for Fia-block=  7.378D-06 for orbital     21a         
          max. resid. fock norm         =  1.039D-05 for orbital     21a         

 ITERATION  ENERGY          1e-ENERGY        2e-ENERGY     RMS[dD(SAO)]   TOL
  12  -1152.0636027388    -2247.1039580     760.92429202    0.564D-06 0.107D-10
                            Exc = -58.6172567942      Eck =  819.541548817    
                              N = 57.999308622    
                            current damping = 0.350
 
          Norm of current diis error: 0.32697E-04
          max. resid. norm for Fia-block=  3.400D-06 for orbital     19a         
          max. resid. fock norm         =  4.656D-06 for orbital     14a         

 ENERGY & DENSITY CONVERGED !

          Overall gridpoints after grid construction =         48542

 ITERATION  ENERGY          1e-ENERGY        2e-ENERGY     RMS[dD(SAO)]   TOL
  13  -1152.0633765974    -2247.1038493     760.92440947    0.248D-06 0.105D-10
                            Exc = -58.6170327402      Eck =  819.541442207    
                              N = 57.999977512    
                            current damping = 0.400
 
          Norm of current diis error: 0.14608E-04
          max. resid. norm for Fia-block=  9.585D-07 for orbital     25a         
          max. resid. fock norm         =  1.326D-06 for orbital     25a         

 End of SCF iterations

   convergence criteria satisfied after   13 iterations


                  ------------------------------------------ 
                 |  total energy      =  -1152.06337659738  |
                  ------------------------------------------ 
                 :  kinetic energy    =   1148.85050262249  :
                 :  potential energy  =  -2300.91387921987  :
                 :  virial theorem    =      1.99721120032  :
                 :  wavefunction norm =      1.00000000000  :
                  .......................................... 


 orbitals $scfmo  will be written to file mos

    irrep                 25a         26a         27a         28a         29a   
 eigenvalues H         -0.35351    -0.34160    -0.32061    -0.30424    -0.29623
            eV          -9.6196     -9.2956     -8.7243     -8.2789     -8.0608
 occupation              2.0000      2.0000      2.0000      2.0000      2.0000 

    irrep                 30a         31a         32a         33a         34a   
 eigenvalues H         -0.03362    -0.02226    -0.01170     0.00506     0.01847
            eV          -0.9149     -0.6056     -0.3185      0.1378      0.5026
 
 
 
 
 ==============================================================================
                           electrostatic moments
 ==============================================================================

 reference point for electrostatic moments:    0.00000   0.00000   0.00000

 
              nuc           elec       ->  total
 ------------------------------------------------------------------------------
                          charge      
 ------------------------------------------------------------------------------
          58.000000     -58.000000       0.000000
 
 ------------------------------------------------------------------------------
                       dipole moment  
 ------------------------------------------------------------------------------
   x      -1.072623       0.874238      -0.198385
   y       0.092616       0.292378       0.384994
   z       0.132959      -0.186403      -0.053444
 
   | dipole moment | =     0.4364 a.u. =     1.1092 debye 
 
 ------------------------------------------------------------------------------
                     quadrupole moment
 ------------------------------------------------------------------------------
  xx     141.003232    -171.889930     -30.886697
  yy     146.619514    -170.813391     -24.193878
  zz     154.104573    -178.891026     -24.786454
  xy      16.319323     -15.287871       1.031452
  xz       8.935355      -4.595096       4.340259
  yz       4.981897      -6.371660      -1.389763
 
     1/3  trace=     -26.622343
     anisotropy=      10.328530
 
 ==============================================================================
 


    ------------------------------------------------------------------------
         total  cpu-time :  11.23 seconds
         total wall-time :  11.37 seconds
    ------------------------------------------------------------------------

   ****  ridft : all done  ****


    2018-03-07 23:48:46.609 

fine, there is no data group "$actual step"
next step = rdgrad
 hostname is c-6-232.local
           Doing BLAS/Lapack in the master proc. with  8 CPUs.
           SMPCPUS    set: Shared-memory Parallelization with   8 CPUs.

           SMP Parallelization Reference:
           C. van Wullen, J. Comput. Chem. 32 (2011) 1195--1201

 egrad (c-6-232.local) : TURBOMOLE V7.1 ( ) 5 Apr 2016 at 11:29:09
 Copyright (C) 2016 TURBOMOLE GmbH, Karlsruhe


    2018-03-07 23:48:46.924 




                               e g r a d

                       quantum chemistry group
                       university of karlsruhe
                               germany


             integral direct evaluation of excited state
                     and polarizability gradients
                 and first-order nonadiabatic couplings



          references (see also programs escf, dscf and ridft) 

          review 
          F. Furche and D. Rappoport,  
          "Density functional methods for excited states: 
          equilibrium structure and electronic spectra",
          ch. III of "Computational Photochemistry", ed. by 
          M. Olivucci, vol. 16 of "Theoretical and Computational 
          Chemistry", Elsevier, Amsterdam, 2005.

          RI-J method 
          D. Rappoport and F. Furche, 
          J. Chem. Phys. 122 (2005), 064105.

          Lagrangian method, implementation, benchmarks 
          F. Furche and R. Ahlrichs,
          J. Chem. Phys. 117 (2002), 7433;
          J. Chem. Phys. 121 (2004), 12772 (E).

          Polarizability derivatives, Raman intensities 
          D. Rappoport and F. Furche, 
          J. Chem. Phys. 126 (2007), 201104.

          First-order nonadiabatic couplings 
          R. Send and F. Furche, 
          J. Chem. Phys. 132 (2010), 044107.
                                     




              +--------------------------------------------------+
              | Atomic coordinate, charge and isotop information |
              +--------------------------------------------------+

                    atomic coordinates            atom    charge  isotop
          0.06608464    0.08851456   -0.07257851    ti    22.000     0
          0.85617203   -2.66866948    1.54110411    o      8.000     0
         -2.54434864   -0.99283475   -2.07753498    o      8.000     0
         -3.82450543   -1.85033879   -3.04498505    h      1.000     0
         -1.05936477    2.08393003    2.37568267    o      8.000     0
         -0.32673599    3.64062132    2.73169367    h      1.000     0
          2.66955939    1.27887533   -1.62086431    o      8.000     0
          1.14771254    2.22666982   -2.81120321    h      1.000     0
          1.10089951   -3.48206530    3.10708148    h      1.000     0
 
       center of nuclear mass  :   -0.00000004   -0.00000004    0.00000005
       center of nuclear charge:   -0.01849350    0.00159684    0.00229240

              +--------------------------------------------------+
              |               basis set information              |
              +--------------------------------------------------+

              we will work with the 1s 3p 5d 7f 9g ... basis set
              ...i.e. with spherical basis functions...

   type   atoms  prim   cont   basis
   ---------------------------------------------------------------------------
    ti       1     73     31   def2-SVP   [5s3p2d1f|14s9p5d1f]
    o        4     24     14   def2-SVP   [3s2p1d|7s4p1d]
    h        4      7      5   def2-SVP   [2s1p|4s1p]
   ---------------------------------------------------------------------------
   total:    9    197    107
   ---------------------------------------------------------------------------

   total number of primitive shells          :   46
   total number of contracted shells         :   47
   total number of cartesian basis functions :  116
   total number of SCF-basis functions       :  107


 residuum convergence criterium   :  0.10E-04


 integral neglect threshold       :  0.29E-10
 integral storage threshold THIZE :  0.10E-04
 integral storage threshold THIME :         5

 
             FOUND RI-J FLAG !
 
  
 AUXILIARY BASIS SET information:

              we will work with the 1s 3p 5d 7f 9g ... basis set
              ...i.e. with spherical basis functions...

   type   atoms  prim   cont   basis
   ---------------------------------------------------------------------------
    ti       1    107     89   def2-SVP   [8s5p5d2f3g|19s5p5d3f3g]
    o        4     70     49   def2-SVP   [6s4p3d1f1g|12s5p4d2f1g]
    h        4     16     11   def2-SVP   [3s1p1d|5s2p1d]
   ---------------------------------------------------------------------------
   total:    9    451    329
   ---------------------------------------------------------------------------

   total number of primitive shells          :   67
   total number of contracted shells         :  103
   total number of cartesian basis functions :  410
   total number of SCF-basis functions       :  329

 RPA SINGLET-EXCITATION-CALCULATION 
 
             FOUND DFT-FLAG !
 
 
 FOUND Nonadiabatic Coupling-FLAG !
 Note: the sign convention for NACME changed
 such that <0|d/dx|n> is now computed.

 symmetry group of the molecule :   c1 

 the group has the following generators :
   c1(z)

    1 symmetry operations found

 there are 1 real representations :   a   

 maximum number of shells which are related by symmetry :  1

 IRREP of excited state :   a   
 

 determining totally symmetric integral contributions 
    - equivalent to irreducible tensor elements - 
 which can be formed within each triple of representations :

             representation triple      contributions

              a     a     a               1

    mo occupation :
   irrep   mo's   occupied
    a      107       29
 
 number of basis functions   :          107
 number of occupied orbitals :           29
 
  
           ------------------
           density functional
           ------------------
 PBE0 hybrid functional
 exchange:    3/4 (LDA+PBE) + 1/4 HF
 correlation: LDA (PW) + PBE
 iterations will be done with small grid
  
 spherical integration : Lebedev's spherical grid
 spherical gridsize    :           3
    i.e. gridpoints    :         302
 value for diffuse not defined
 radial integration    : Chebyshev 2nd kind (scaling 3)
 radial gridsize       :           3
 integration cells     :           9
 partition function    : becke
 partition sharpness   :           3
  
 
 Derivatives of quadrature weights will be included
 
  
           ----------------------
               RI - INFORMATION
           ----------------------

 biggest AO integral is expected to be    13.493451081

 Threshold for integral neglect (rithr2):   0.29E-10
 Threshold for integral neglect (rithr1):   0.29E-10

 Contributions to RI integral batches: 
  neglected integral batches:          50
  direct contribution:                  0
  memory contribution:        1078
 Core memory available (ricore)            500 MiB
 Core memory needed for (P|Q) and Cholesky 1 MiB
 Core memory used for integrals            21 MiB
  
 ****************************************
 Memory allocated for RIDFT 22 MiB
 ****************************************
                                            
  MOs are in ASCII format !


 reading orbital data $scfmo  from file mos
 orbital characterization : scfconv=7
 preparing numerical integration ....
          Overall gridpoints after grid construction =         13502
 Ordering of quadrature gridpoints disabled.

 Calculating ground state density on molecular grid

 Integral of ground state density: N =   57.99930861955063    



 number of non-frozen orbitals          :   107
 number of non-frozen occupied orbitals :    29



                        -------------------
                         excitation vector 
                        -------------------


 dimension of super-tensorspace: 2

          IRREP   tensor space dimension   number of roots

           a              2262                   1

 maximum number of Davidson iterations set to   25


 machine precision: 2.22D-16


 logfile sing_a    exists already

 found      1 converged vectors on sing_a   
 read       1 vectors from logfile sing_a   



                       Nonorthonormal Krylov Space Iteration


 total number of roots to be determined:   1


 maximum core memory set to   500 MB,
 corresponding to     2317 vectors in CAO basis


 maximum number of simultaneously treated vectors (including degeneracy):        1


 Iteration IRREP Converged      Max. Euclidean
                 roots          residual norm

    1       a        0        1.345706857755810D-01
 
    2       a        0        6.476176579758423D-02
 
    3       a        0        4.708508798842672D-02
 
    4       a        0        2.996363149605632D-02
 
    5       a        0        2.255141004700435D-02
 
    6       a        0        2.001892821442310D-02
 
    7       a        0        1.820871980374977D-02
 
    8       a        0        1.509464396385068D-02
 
    9       a        0        1.503089959764451D-02
 
   10       a        0        1.487970969624557D-02
 
   11       a        0        1.644908377400641D-02
 
   12       a        0        1.067130771990655D-02
 
   13       a        0        6.991299838821535D-03
 
   14       a        0        6.613757264558108D-03
 
   15       a        0        5.514723960932419D-03
 
   16       a        0        6.373651504578758D-03
 
   17       a        0        4.858662332119739D-03
 
   18       a        0        2.843972520089175D-03
 
   19       a        0        1.440279341757639D-03
 
   20       a        0        6.654396334558911D-04
 
   21       a        0        3.657408858012761D-04
 
   22       a        0        1.620719204813887D-04
 
   23       a        0        9.183374175522667D-05
 
   24       a        0        3.793698700917439D-05
 
   25       a        0        1.390653648903292D-05
 


 Warning! No convergence within  25 iterations.
 Unless you have specified a very low $escfiterlimit/$forceiterlimit, 
 this is a reason to worry!



 IRREP   Vector     Eigenvalue           Euclidean residual norm

  a         1    2.062088508398864D-01    1.390653648903292D-05
 

 Deallocation failure for file unit arrays in <egrad>


========================
 internal module stack: 
------------------------
    egrad
========================

  abnormal termination
 egrad ended abnormally
error in gradient step (1)
