           Doing BLAS/Lapack in the master proc. with  8 CPUs.
           SMPCPUS    set: Shared-memory Parallelization with   8 CPUs.

           SMP Parallelization Reference:
           C. van Wullen, J. Comput. Chem. 32 (2011) 1195--1201
 operating system is UNIX !

 force (c-17-6.gp.local) : TURBOMOLE V7.2 ( 21454 ) 4 Oct 2017 at 12:48:15
 Copyright (C) 2017 TURBOMOLE GmbH, Karlsruhe


    2018-03-23 00:03:17.922 



                             T U R B O M O L E   

                          a o f o r c e - program

                        using direct algorithms for

                       SCF level calculations of
                         * harmonic force constants
                         * hyperpolarizabilities
                         * IR and RAMAN intensities
                         * VCD intensities

                       DFT level calculations of
                         * harmonic force constants
                         * IR intensities
                                                   
       Stephan Boecker, Peter Deglmann, Filipp Furche and Marco Haeser
                          Quantum Chemistry Group
                          Universitaet  Karlsruhe
                                   Germany

 
 
 
 
     References :
 
       RI-J implementation:
         Peter Deglmann, Klaus May, Filipp Furche, Reinhart Ahlrichs
                 Chem. Phys. Lett. 384:103 (2004)
 
       Efficiency, technical details:
         Peter Deglmann, Filipp Furche, Reinhart Ahlrichs
                 Chem. Phys. Lett. 362:511 (2002)
 
       Search of lowest eigenvalues by iterative diagonalization:
         Peter Deglmann, Filipp Furche
                 J. Chem. Phys. 117:9535 (2002)
 
       Vibrational circular dichroism implementation:
        Kevin Reiter, Michael Kuehn, Florian Weigend
                 J. Chem. Phys. 146:054102 (2017)  
 
 


              +--------------------------------------------------+
              | Atomic coordinate, charge and isotop information |
              +--------------------------------------------------+

                    atomic coordinates            atom    charge  isotop
         -0.79957293   -2.52914627    0.00000000    c      6.000     0
         -2.59757864   -0.57568942    0.00000000    c      6.000     0
          1.79735098   -1.96172438    0.00000000    c      6.000     0
          2.59009139    0.57212267    0.00000000    c      6.000     0
          0.80022766    2.53741380    0.00000000    c      6.000     0
         -1.79051846    1.95702361    0.00000000    c      6.000     0
          3.76154284   -3.86658601    0.00000000    c      6.000     0
          3.62294103   -6.35679942    0.00000000    c      6.000     0
         -0.57414133   -7.25191560    0.00000000    n      7.000     0
         -1.47245891   -5.17656007    0.00000000    c      6.000     0
         -6.18975382   -3.90789112    0.00000000    c      6.000     0
         -5.22933313   -1.32429865    0.00000000    c      6.000     0
         -7.31662030    0.04084074    0.00000000    c      6.000     0
         -5.99327247    4.12317877    0.00000000    n      7.000     0
         -3.74680307    3.86346686    0.00000000    c      6.000     0
         -0.28945607    7.31442961    0.00000000    c      6.000     0
          1.46779029    5.19088466    0.00000000    c      6.000     0
          6.47920989   -3.40653849    0.00000000    c      6.000     0
          5.21926198    1.31309321    0.00000000    c      6.000     0
          6.56741380    3.12873683    0.00000000    n      7.000     0
          3.69367927    6.31595868    0.00000000    c      6.000     0
          4.74904160    8.07574801    0.00000000    h      1.000     0
          7.55009893   -3.54123295    1.77280500    h      1.000     0
          7.55009893   -3.54123295   -1.77280500    h      1.000     0
          4.61928213   -8.15066468    0.00000000    h      1.000     0
         -9.36832374    0.07491667    0.00000000    h      1.000     0
         -6.84184716   -4.76796100   -1.77280500    h      1.000     0
         -6.84184716   -4.76796100    1.77280500    h      1.000     0
         -0.70825177    8.30919395   -1.77280500    h      1.000     0
         -0.70825177    8.30919395    1.77280500    h      1.000     0
 
       center of nuclear mass  :   -0.00000000    0.00000000    0.00000000
       center of nuclear charge:   -0.00000000    0.00000000    0.00000000

              +--------------------------------------------------+
              |               basis set information              |
              +--------------------------------------------------+

              we will work with the 1s 3p 5d 7f 9g ... basis set
              ...i.e. with spherical basis functions...

   type   atoms  prim   cont   basis
   ---------------------------------------------------------------------------
    c       18     24     14   def2-SV(P)   [3s2p1d|7s4p1d]
    n        3     24     14   def2-SV(P)   [3s2p1d|7s4p1d]
    h        9      4      2   def2-SV(P)   [2s|4s]
   ---------------------------------------------------------------------------
   total:   30    540    312
   ---------------------------------------------------------------------------

   total number of primitive shells          :   28
   total number of contracted shells         :  144
   total number of cartesian basis functions :  333
   total number of SCF-basis functions       :  312

 
             FOUND RI-J FLAG !
 

 NOTE: THIS IS A PRELIMINARY IMPLEMENTATION. THE RI APPROXIMATION IS
       PRESENTLY USED FOR CPKS CONTRIBUTIONS TO THE HESSIAN ONLY! SEE
       MANUAL FOR FURTHER DETAILS.

  
 AUXILIARY BASIS SET information:

              we will work with the 1s 3p 5d 7f 9g ... basis set
              ...i.e. with spherical basis functions...

   type   atoms  prim   cont   basis
   ---------------------------------------------------------------------------
    c       18     70     49   def2-SV(P)   [6s4p3d1f1g|12s5p4d2f1g]
    n        3     70     49   def2-SV(P)   [6s4p3d1f1g|12s5p4d2f1g]
    h        9     16     11   def2-SV(P)   [3s1p1d|5s2p1d]
   ---------------------------------------------------------------------------
   total:   30   1614   1128
   ---------------------------------------------------------------------------

   total number of primitive shells          :   56
   total number of contracted shells         :  360
   total number of cartesian basis functions : 1389
   total number of SCF-basis functions       : 1128


 symmetry group of the molecule :   c3h

 the group has the following generators :
   c3(z)
   mirror plane sigma(xy)

    6 symmetry operations found

 there are 4 real representations :   a'   e'   a"   e"  

 maximum number of shells which are related by symmetry :  6


 determining totally symmetric integral contributions 
    - equivalent to irreducible tensor elements - 
 which can be formed within each triple of representations :

             representation triple      contributions

              a'    a'    a'              1
              a'    e'    e'              2
              a'    a"    a"              1
              a'    e"    e"              2
              e'    a'    e'              2
              e'    e'    a'              2
              e'    e'    e'              2
              e'    a"    e"              2
              e'    e"    a"              2
              e'    e"    e"              2
              a"    a'    a"              1
              a"    e'    e"              2
              a"    a"    a'              1
              a"    e"    e'              2
              e"    a'    e"              2
              e"    e'    a"              2
              e"    e'    e"              2
              e"    a"    e'              2
              e"    e"    a'              2
              e"    e"    e'              2


 WARNING WARNING WARNING WARNING WARNING WARNING WARNING WARNING WARNING
 !!!!!!!!!!!!!!!!!!!!!!!!!!!!!!!!!!!!!!!!!!!!!!!!!!!!!!!!!!!!!!!!!!!!!!!

 Point groups with complex reducible e representations are currently 
 NOT supported by aoforce.
 It is STRONGLY RECOMMENDED to use a lower symmetry!

 WARNING WARNING WARNING WARNING WARNING WARNING WARNING WARNING WARNING
 !!!!!!!!!!!!!!!!!!!!!!!!!!!!!!!!!!!!!!!!!!!!!!!!!!!!!!!!!!!!!!!!!!!!!!!



    mo occupation :
   irrep   mo's   occupied
    a'      74       19
    e'     148       38
    a"      30        4
    e"      60        8
 
 number of basis functions   :                    312
 number of occupied orbitals :                     69
 
  MOs are in ASCII format !


 reading orbital data $scfmo  from file mos
 orbital characterization : scfconv=7
 time elapsed for calculating density matrices :   0.040 sec

 number of non-frozen orbitals          :   312
 number of non-frozen occupied orbitals :    69
 Blocking parameters 
 shells:
    index      start shell   last shell  start bf    last bf    #bf 
       1             1         144             1        333    333
  
           ----------------------
               RI - INFORMATION
           ----------------------

 biggest AO integral is expected to be     4.152585025

 Threshold for integral neglect (rithr2):   0.13E-11
 Threshold for integral neglect (rithr1):   0.13E-11

 Contributions to RI integral batches: 
  neglected integral batches:                  7784
  direct contribution:                            0
  memory contribution:                  2656
 Core memory available (ricore):               500 MiB
 Core memory needed for (P|Q) and Cholesky:      3 MiB
 Core memory used for integrals:               156 MiB
 
 ****************************************
 Memory allocated for RIDFT: 159 MiB
 ****************************************
 
  
           ------------------
           density functional
           ------------------
 TPSS meta-GGA functional
 exchange:    LDA + TPSS
 correlation: LDA (PW) + TPSS

 iterations will be done with small grid
  
 spherical integration : Lebedev's spherical grid
 spherical gridsize    :                     3
    i.e. gridpoints    :                   302
 value for diffuse not defined
 radial integration    : Chebyshev 2nd kind (scaling 3)
 radial gridsize       :                     3
 integration cells     :                     9
 partition function    : becke
 partition sharpness   :                     3
  
 
 Derivatives of quadrature weights will be included
 
 grid rotated due to c3 or c6 main axis
          Overall gridpoints after grid construction =         48942
 Ordering of quadrature gridpoints disabled.
 
 
 
 
 OCCUPIED-OCCUPIED TENSOR SPACES :

          IRREP   tensor space dimension   number of roots

           a'             1885                  18
           e'             3016                  36
           a"              760                  10
           e"             1216                  20
 
 OCCUPIED-VIRTUAL TENSOR SPACES :

          IRREP   tensor space dimension   number of roots

           a'             3447                  18
           e'             6894                  36
           a"             2142                  10
           e"             4284                  20
 
 
 
 
 CONSTRUCTING integral bounds

 setting up bound for integral derivative estimation

 increment for numerical differentiation : 0.00050000
 
 machine precision:   2.220446049250313E-016

 integral neglect threshold       :  0.10E-09
 integral storage threshold THIZE :  0.10E-04
 integral storage threshold THIME :         5

 
 
 
 PREPARING NUMERICAL INTEGRATION
 
 Remaining core memory for DFT =                  3771 MB
 
 Memory needed per atom    =                  1303 KiB
 
     i. e.                    30 atoms per loop

 Calculating ground state density on molecular grid

 Integral of ground state density: N =   138.0001876548809    


 
 
 CONSTRUCTING first deriv. of <mu|x,y,z|nu> -> Dip. deriv.
  dipole integral derivatives will be neglected if
  expon. factor <0.150150E-11
      ...terminated. cpu:       0.33       wall:       0.04
 
 
 
 
 CONSTRUCTING first deriv. of  <mu|nu>
                               <mu|h|nu>    -> RHS
              second deriv. of <mu|nu>      -> Hessian
                               <mu|h|nu>    -> Hessian
                               nucl. rep.   -> Hessian
     integrals are neglected if expon. factor <  1.501501501501502E-013
  _________________________________
 |                                 |
 |         DFTD3 V3.1 Rev 0        |
 | S.Grimme, University Bonn       |
 |         June 2014               |
 |   see standalone version        |
 |       dftd3 -h for options      |
 |_________________________________|
 
 Please cite DFT-D3 work done with this code as:
 S. Grimme, J. Antony, S. Ehrlich and H. Krieg,
 J. Chem. Phys, 132 (2010), 154104.
 If used with BJ-damping cite also
 S. Grimme, S. Ehrlich and L. Goerigk,
 J. Comput. Chem. 32 (2011), 1456-1465
 For DFT-D2 the reference is
 S. Grimme, J. Comput. Chem., 27 (2006), 1787-1799
 
      ...terminated. cpu:       8.75       wall:       2.68
 
 
 
 
 CONSTRUCTING second deriv. of 2e energy    -> Hessian
   treating Coulomb (and exchange) contribution
     integrals will be neglected if total contribution <  1.501501501501501E-009
      ...terminated. cpu:     127.46       wall:      15.95
   treating exchange-correlation contribution
      ...terminated. cpu:     114.40       wall:      14.29
 
 
 
 
 CONSTRUCTING S(i,j)xi
      ...terminated. cpu:       0.20       wall:       0.08
 
 
 
 
 CONSTRUCTING <i|x,y,z|j>*S(i,j)xi          -> Dip. deriv.
      ...terminated. cpu:       0.19       wall:       0.03
 
 
 
 
 CONSTRUCTING epsilon(i)*S(i,j)xi*S(i,j)chi -> Hessian
      ...terminated. cpu:       0.04       wall:       0.01
 
 
 
 
 CONSTRUCTING G(a,i)[S(k,l)xi]              -> RHS
              G(i,j)[S(k,l)xi]*S(i,j)chi    -> Hessian
 
         Maximum core memory set to                   4000 MB
         This corresponds to                  4713 vectors in CAO basis
      ...terminated. cpu:     695.13       wall:      87.29
 
 
 
 
 CONSTRUCTING G(mu,nu)[D(kap,lam)]xi
 
          Maximum core memory set to                   4000 MB
          Atoms treated simultaneously :                    30
      ...terminated. cpu:     276.35       wall:      35.27
 
 
 
 
 CONSTRUCTING F(a,i)xi                      -> RHS
              F(i,j)xi*S(i,j)chi            -> Hessian
 
        Maximum core memory set to                  4000 MB
        This corresponds to                  8387 vectors in CAO basis
      ...terminated. cpu:      12.62       wall:       2.34
 
 
 
 
 CONSTRUCTING epsilon(i)*S(a,i)xi           -> RHS
      ...terminated. cpu:       1.47       wall:       0.28
 
 
 
 
 SOLVING CPHF equations
 
 Residuum convergence criterium   :  1.000000000000000E-005
 
 Maximum number of Davidson iterations set to                    25
  Switching to small grid
        preparing numerical integration ....
          Overall gridpoints after grid construction =         13451

 Calculating ground state density on molecular grid

 Integral of ground state density: N =   137.9912284131539    




                       Nonorthonormal Krylov Space Iteration


 total number of roots to be determined:  84


 maximum core memory set to  4000 MB,
 corresponding to     4619 vectors in CAO basis


 maximum number of simultaneously treated vectors (including degeneracy):      140


 Iteration IRREP Converged      Max. Euclidean
                 roots          residual norm

    1       a'       0        8.399109871287838D-02
            e'       0        6.038766745349190D-02
            a"       0        2.124100353146008D-02
            e"       0        1.829983774266993D-02
 
    2       a'       0        1.059725937532046D-02
            e'       0        6.211128034800858D-03
            a"       0        1.772926051442790D-03
            e"       0        1.449321123634872D-03
 
    3       a'       0        5.196999492422263D-04
            e'       0        3.489427319772592D-04
            a"       0        7.006484030809337D-05
            e"       0        5.814925940303517D-05
 
    4       a'      14        1.596388415148217D-05
            e'      33        1.252945574119352D-05
            a"      10        3.511757734498662D-06
            e"      20        1.771164588044116D-06
 
    5       a'      18        8.372928547767331D-06
            e'      36        9.246453515995888D-06
            a"      10        3.511757734498662D-06
            e"      20        1.771164588044116D-06
 

 converged!

  Switching to fine grid
        preparing numerical integration ....
          Overall gridpoints after grid construction =         48942

 Calculating ground state density on molecular grid

 Integral of ground state density: N =   138.0001876548798    



 Iteration IRREP Converged      Max. Euclidean
                 roots          residual norm

    6       a'       0        2.409966288552451D-04
            e'       0        1.665617725155406D-04
            a"       0        2.205177025018779D-04
            e"       0        1.876323303596036D-04
 

 NOTE: Residual norms are larger than 1.00D-05 due to mgrid option!

      ...terminated. cpu:    1272.78       wall:     160.61
 
 
 
 
 CONSTRUCTING <a|x,y,z|i>*U(a,i)xi          -> Dip. deriv.
      ...terminated. cpu:       0.43       wall:       0.05
 
 
 
 
 CONSTRUCTING RHS(a,i)xi*U(a,i)chi          -> Hessian
      ...terminated. cpu:       1.10       wall:       0.15
 
 
 
 

            -----------------------
            permanent dipole moment
            -----------------------

                                   x                y                z
    electronic part       :    0.0000000000    -0.0000000000     0.0000000000
     nuclear   part       :   -0.0000000000     0.0000000000     0.0000000000
     total                :   -0.0000000000     0.0000000000     0.0000000000

 with reference to the point :   0.0000000        0.0000000        0.0000000
 (given in atomic units)
    | dipole |       :    0.0000000000  debye

   ***  dipole moment & cartesian dipole gradients written onto
        $dipole, $dipgrad,  file=<dipgrad>  ***

             -----------------------------------
             rotational and vibrational analysis
             -----------------------------------


            ==============================================================
            ATOMIC WEIGHTS (average over the natural occurance of isotops)
            ==============================================================
            ('*' denotes special isotop !)
              1     c                12.01115
              2     c                12.01115
              3     c                12.01115
              4     c                12.01115
              5     c                12.01115
              6     c                12.01115
              7     c                12.01115
              8     c                12.01115
              9     n                14.00670
             10     c                12.01115
             11     c                12.01115
             12     c                12.01115
             13     c                12.01115
             14     n                14.00670
             15     c                12.01115
             16     c                12.01115
             17     c                12.01115
             18     c                12.01115
             19     c                12.01115
             20     n                14.00670
             21     c                12.01115
             22     h                 1.00797
             23     h                 1.00797
             24     h                 1.00797
             25     h                 1.00797
             26     h                 1.00797
             27     h                 1.00797
             28     h                 1.00797
             29     h                 1.00797
             30     h                 1.00797

          -------------------------------------------------
          CARTESIAN FORCE CONSTANT MATRIX (hartree/bohr**2)
         (translational & rotational space projected out)
          -------------------------------------------------

   ATOM              1 c                           2 c 
                  dx        dy        dz        dx        dy        dz
   1 c     dx  0.6602212
           dy -0.0374473 0.6381821
           dz  0.0000000 0.0000000 0.1405411
   2 c     dx -0.2006521 0.1170328 0.0000000 0.6497474
           dy  0.0916013-0.2103979 0.0000000-0.0016285 0.6958531
           dz  0.0000000 0.0000000-0.0664448 0.0000000 0.0000000 0.1481170
   3 c     dx -0.2962754-0.0466206 0.0000000-0.0478151 0.0428748 0.0000000
           dy -0.0335475-0.1144267 0.0000000 0.0125534 0.0343795 0.0000000
           dz  0.0000000 0.0000000-0.0707438 0.0000000 0.0000000 0.0097487
   4 c     dx -0.0141297-0.0297928 0.0000000 0.0028186 0.0082988 0.0000000
           dy -0.0604941-0.0018510 0.0000000 0.0102607-0.0406257 0.0000000
           dz  0.0000000 0.0000000 0.0092602 0.0000000 0.0000000-0.0055248
   5 c     dx -0.0378012 0.0151530 0.0000000-0.0101703-0.0646090 0.0000000
           dy  0.0131911-0.0000060 0.0000000-0.0342877-0.0032653 0.0000000
           dz  0.0000000 0.0000000-0.0055248 0.0000000 0.0000000 0.0097487
   6 c     dx  0.0341747 0.0019043 0.0000000-0.1251751-0.0521642 0.0000000
           dy  0.0326055-0.0501554 0.0000000-0.0652373-0.2855270 0.0000000
           dz  0.0000000 0.0000000 0.0092602 0.0000000 0.0000000-0.0707438
   7 c     dx -0.0398548 0.0085342 0.0000000 0.0003481-0.0035449 0.0000000
           dy  0.0227725 0.0211799 0.0000000-0.0056357 0.0027142 0.0000000
           dz  0.0000000 0.0000000 0.0056076 0.0000000 0.0000000 0.0045500
   8 c     dx  0.0060990-0.0047734 0.0000000 0.0002153 0.0011102 0.0000000
           dy -0.0094463-0.0071758 0.0000000 0.0006766-0.0009448 0.0000000
           dz  0.0000000 0.0000000-0.0006783 0.0000000 0.0000000-0.0002502
   9 n     dx -0.0050337 0.0078627 0.0000000 0.0002779-0.0032652 0.0000000
           dy  0.0189232-0.0510235 0.0000000-0.0083741 0.0072404 0.0000000
           dz  0.0000000 0.0000000 0.0157628 0.0000000 0.0000000 0.0021436
  10 c     dx -0.0600324-0.0392739 0.0000000 0.0161755 0.0084426 0.0000000
           dy -0.0528816-0.2239829 0.0000000 0.0120939-0.0549814 0.0000000
           dz  0.0000000 0.0000000-0.0567922 0.0000000 0.0000000 0.0030508
  11 c     dx -0.0085458-0.0021135 0.0000000-0.0108305-0.0228572 0.0000000
           dy  0.0073221-0.0029738 0.0000000-0.0157815-0.0206742 0.0000000
           dz  0.0000000 0.0000000 0.0004652 0.0000000 0.0000000 0.0086067
  12 c     dx -0.0519784 0.0207087 0.0000000-0.2123942-0.0337000 0.0000000
           dy  0.0219345 0.0092207 0.0000000-0.0615237-0.0981790 0.0000000
           dz  0.0000000 0.0000000 0.0064955 0.0000000 0.0000000-0.0602022
  13 c     dx  0.0032009-0.0104446 0.0000000-0.0557138 0.0163979 0.0000000
           dy -0.0142874 0.0049399 0.0000000 0.0238922 0.0078664 0.0000000
           dz  0.0000000 0.0000000 0.0021011 0.0000000 0.0000000-0.0015177
  14 n     dx  0.0029162-0.0005881 0.0000000-0.0040539-0.0103292 0.0000000
           dy  0.0026692-0.0008413 0.0000000 0.0005931 0.0036560 0.0000000
           dz  0.0000000 0.0000000-0.0002361 0.0000000 0.0000000-0.0004627
  15 c     dx -0.0000058-0.0023945 0.0000000 0.0101673 0.0260379 0.0000000
           dy -0.0039748 0.0001438 0.0000000 0.0131417-0.0402072 0.0000000
           dz  0.0000000 0.0000000 0.0047723 0.0000000 0.0000000 0.0065048
  16 c     dx  0.0006823-0.0030174 0.0000000 0.0028485-0.0007673 0.0000000
           dy  0.0006493-0.0012012 0.0000000 0.0019796-0.0000577 0.0000000
           dz  0.0000000 0.0000000-0.0001435 0.0000000 0.0000000 0.0002953
  17 c     dx -0.0006782-0.0024410 0.0000000-0.0049388 0.0066617 0.0000000
           dy  0.0000348-0.0028172 0.0000000 0.0006713 0.0076421 0.0000000
           dz  0.0000000 0.0000000-0.0002459 0.0000000 0.0000000 0.0060154
  18 c     dx  0.0037310 0.0063842 0.0000000-0.0024675-0.0004625 0.0000000
           dy  0.0011356 0.0012354 0.0000000-0.0020231 0.0004686 0.0000000
           dz  0.0000000 0.0000000 0.0032689 0.0000000 0.0000000-0.0000451
  19 c     dx  0.0113422-0.0021607 0.0000000-0.0029985 0.0030744 0.0000000
           dy  0.0045809-0.0084321 0.0000000 0.0006343 0.0009140 0.0000000
           dz  0.0000000 0.0000000 0.0056744 0.0000000 0.0000000-0.0002397
  20 n     dx -0.0020668-0.0000497 0.0000000 0.0008768-0.0003791 0.0000000
           dy -0.0066717 0.0040211 0.0000000-0.0005336-0.0036678 0.0000000
           dz  0.0000000 0.0000000-0.0009822 0.0000000 0.0000000-0.0001972
  21 c     dx -0.0031826 0.0048777 0.0000000-0.0029925-0.0066479 0.0000000
           dy  0.0017236-0.0020573 0.0000000 0.0007270-0.0003418 0.0000000
           dz  0.0000000 0.0000000 0.0001171 0.0000000 0.0000000 0.0003659
  22 h     dx -0.0000832-0.0001221 0.0000000 0.0001006 0.0003382 0.0000000
           dy  0.0000709 0.0001979 0.0000000-0.0004773-0.0001402 0.0000000
           dz  0.0000000 0.0000000-0.0001072 0.0000000 0.0000000-0.0006598
  23 h     dx -0.0009196 0.0004895 0.0005424-0.0000015-0.0002297 0.0000765
           dy -0.0009440-0.0010053-0.0009450 0.0004798-0.0000726 0.0001890
           dz  0.0000282-0.0001001-0.0002946 0.0000832 0.0000251 0.0000155
  24 h     dx -0.0009196 0.0004895-0.0005424-0.0000015-0.0002297-0.0000765
           dy -0.0009440-0.0010053 0.0009450 0.0004798-0.0000726-0.0001890
           dz -0.0000282 0.0001001-0.0002946-0.0000832-0.0000251 0.0000155
  25 h     dx  0.0002638 0.0003462 0.0000000-0.0002688 0.0001056 0.0000000
           dy -0.0000411 0.0000366 0.0000000-0.0001066 0.0001551 0.0000000
           dz  0.0000000 0.0000000-0.0003535 0.0000000 0.0000000-0.0003831
  26 h     dx -0.0000506-0.0006346 0.0000000-0.0003308 0.0021760 0.0000000
           dy  0.0019647-0.0003993 0.0000000-0.0049447-0.0009530 0.0000000
           dz  0.0000000 0.0000000-0.0001938 0.0000000 0.0000000 0.0084949
  27 h     dx -0.0003527-0.0010058-0.0000654-0.0013674-0.0031583 0.0010313
           dy -0.0002204 0.0003622-0.0002258 0.0027167-0.0003459-0.0014862
           dz -0.0001315 0.0000433-0.0001482 0.0004922 0.0004072-0.0004765
  28 h     dx -0.0003527-0.0010058 0.0000654-0.0013674-0.0031583-0.0010313
           dy -0.0002204 0.0003622 0.0002258 0.0027167-0.0003459 0.0014862
           dz  0.0001315-0.0000433-0.0001482-0.0004922-0.0004072-0.0004765
  29 h     dx  0.0001419 0.0000515-0.0000373-0.0000182 0.0000057-0.0001535
           dy -0.0000293-0.0000651-0.0000485-0.0000480-0.0000447-0.0000384
           dz -0.0000061 0.0000197 0.0000026-0.0000373-0.0000487-0.0000243
  30 h     dx  0.0001419 0.0000515 0.0000373-0.0000182 0.0000057 0.0001535
           dy -0.0000293-0.0000651 0.0000485-0.0000480-0.0000447 0.0000384
           dz  0.0000061-0.0000197 0.0000026 0.0000373 0.0000487-0.0000243

   ATOM              3 c                           4 c 
                  dx        dy        dz        dx        dy        dz
   3 c     dx  0.6829164
           dy  0.0207786 0.6626841
           dz  0.0000000 0.0000000 0.1481170
   4 c     dx -0.1176203-0.0690943 0.0000000 0.6112616
           dy -0.0436628-0.2934298 0.0000000 0.0091805 0.6871418
           dz  0.0000000 0.0000000-0.0664448 0.0000000 0.0000000 0.1405411
   5 c     dx  0.0378320 0.0368949 0.0000000-0.1946027 0.0922482 0.0000000
           dy  0.0065736-0.0512676 0.0000000 0.1053214-0.2160994 0.0000000
           dz  0.0000000 0.0000000 0.0097487 0.0000000 0.0000000-0.0707438
   6 c     dx -0.0217282-0.0244328 0.0000000-0.0440160 0.0432392 0.0000000
           dy -0.0224708-0.0160790 0.0000000 0.0125379 0.0280354 0.0000000
           dz  0.0000000 0.0000000-0.0055248 0.0000000 0.0000000 0.0092602
   7 c     dx -0.1679659 0.0871744 0.0000000 0.0123860 0.0152263 0.0000000
           dy  0.0593506-0.1426073 0.0000000 0.0164521-0.0551437 0.0000000
           dz  0.0000000 0.0000000-0.0602022 0.0000000 0.0000000 0.0064955
   8 c     dx  0.0094175 0.0137113 0.0000000-0.0062041 0.0088574 0.0000000
           dy  0.0212057-0.0572649 0.0000000 0.0050147 0.0143449 0.0000000
           dz  0.0000000 0.0000000-0.0015177 0.0000000 0.0000000 0.0021011
   9 n     dx -0.0024874 0.0003114 0.0000000 0.0009993-0.0037759 0.0000000
           dy  0.0112337 0.0020894 0.0000000-0.0005187 0.0010756 0.0000000
           dz  0.0000000 0.0000000-0.0004627 0.0000000 0.0000000-0.0002361
  10 c     dx -0.0106483-0.0251596 0.0000000-0.0026516 0.0024472 0.0000000
           dy -0.0380558-0.0193916 0.0000000 0.0008669 0.0027896 0.0000000
           dz  0.0000000 0.0000000 0.0065048 0.0000000 0.0000000 0.0047723
  11 c     dx  0.0011938-0.0029349 0.0000000-0.0017558-0.0020569 0.0000000
           dy -0.0001881 0.0015970 0.0000000 0.0016098 0.0012369 0.0000000
           dz  0.0000000 0.0000000 0.0002953 0.0000000 0.0000000-0.0001435
  12 c     dx  0.0076722 0.0066096 0.0000000-0.0033243-0.0015626 0.0000000
           dy  0.0006193-0.0049689 0.0000000 0.0009132-0.0001710 0.0000000
           dz  0.0000000 0.0000000 0.0060154 0.0000000 0.0000000-0.0002459
  13 c     dx -0.0035683-0.0010595 0.0000000 0.0005198 0.0004140 0.0000000
           dy  0.0063155 0.0002340 0.0000000-0.0027402-0.0057597 0.0000000
           dz  0.0000000 0.0000000 0.0003659 0.0000000 0.0000000 0.0001171
  14 n     dx -0.0029269-0.0016624 0.0000000-0.0004113 0.0076275 0.0000000
           dy -0.0018169 0.0001359 0.0000000 0.0010055 0.0023656 0.0000000
           dz  0.0000000 0.0000000-0.0001972 0.0000000 0.0000000-0.0009822
  15 c     dx  0.0015418 0.0019871 0.0000000-0.0024405-0.0125384 0.0000000
           dy -0.0004531-0.0036262 0.0000000-0.0057968 0.0053507 0.0000000
           dz  0.0000000 0.0000000-0.0002397 0.0000000 0.0000000 0.0056744
  16 c     dx -0.0013417 0.0026731 0.0000000 0.0051154-0.0003363 0.0000000
           dy  0.0011125-0.0006572 0.0000000-0.0055849-0.0001491 0.0000000
           dz  0.0000000 0.0000000-0.0000451 0.0000000 0.0000000 0.0032689
  17 c     dx -0.0018527 0.0043651 0.0000000 0.0194774 0.0114830 0.0000000
           dy  0.0022743 0.0049149 0.0000000 0.0257213-0.0381523 0.0000000
           dz  0.0000000 0.0000000 0.0045500 0.0000000 0.0000000 0.0056076
  18 c     dx -0.0349443 0.0018593 0.0000000-0.0021114-0.0036073 0.0000000
           dy  0.0089350 0.0034396 0.0000000 0.0058284-0.0094082 0.0000000
           dz  0.0000000 0.0000000 0.0086067 0.0000000 0.0000000 0.0004652
  19 c     dx -0.0282996-0.0377716 0.0000000-0.2228998-0.0411499 0.0000000
           dy -0.0341203-0.0105063 0.0000000-0.0547576-0.0611155 0.0000000
           dz  0.0000000 0.0000000 0.0030508 0.0000000 0.0000000-0.0567922
  20 n     dx  0.0004598 0.0084791 0.0000000-0.0279274-0.0321409 0.0000000
           dy  0.0033702 0.0070585 0.0000000-0.0210804-0.0281298 0.0000000
           dz  0.0000000 0.0000000 0.0021436 0.0000000 0.0000000 0.0157628
  21 c     dx  0.0001189-0.0007322 0.0000000-0.0100144 0.0001431 0.0000000
           dy -0.0011658-0.0008485 0.0000000-0.0045297 0.0089376 0.0000000
           dz  0.0000000 0.0000000-0.0002502 0.0000000 0.0000000-0.0006783
  22 h     dx  0.0000487 0.0002899 0.0000000 0.0002255 0.0000190 0.0000000
           dy  0.0000777-0.0001624 0.0000000-0.0003683 0.0000749 0.0000000
           dz  0.0000000 0.0000000-0.0003831 0.0000000 0.0000000-0.0003535
  23 h     dx -0.0007925-0.0023848-0.0007714-0.0003474 0.0002234-0.0002283
           dy  0.0034902-0.0009208-0.0016363 0.0010088 0.0003570-0.0000563
           dz  0.0005987-0.0002226-0.0004765-0.0000282 0.0001356-0.0001482
  24 h     dx -0.0007925-0.0023848 0.0007714-0.0003474 0.0002234 0.0002283
           dy  0.0034902-0.0009208 0.0016363 0.0010088 0.0003570 0.0000563
           dz -0.0005987 0.0002226-0.0004765 0.0000282-0.0001356-0.0001482
  25 h     dx -0.0019963 0.0039831 0.0000000 0.0002638-0.0017831 0.0000000
           dy -0.0031376 0.0007125 0.0000000 0.0008161-0.0007137 0.0000000
           dz  0.0000000 0.0000000 0.0084949 0.0000000 0.0000000-0.0001938
  26 h     dx -0.0001402 0.0003382 0.0000000 0.0001054 0.0000380 0.0000000
           dy -0.0004773 0.0001006 0.0000000 0.0002310 0.0000092 0.0000000
           dz  0.0000000 0.0000000-0.0006598 0.0000000 0.0000000-0.0001072
  27 h     dx -0.0000564 0.0000259 0.0001100-0.0000037-0.0000548 0.0000606
           dy -0.0000277-0.0000065-0.0001138-0.0001356 0.0000805-0.0000081
           dz  0.0000608-0.0000079-0.0000243-0.0000140-0.0000152 0.0000026
  28 h     dx -0.0000564 0.0000259-0.0001100-0.0000037-0.0000548-0.0000606
           dy -0.0000277-0.0000065 0.0001138-0.0001356 0.0000805 0.0000081
           dz -0.0000608 0.0000079-0.0000243 0.0000140 0.0000152 0.0000026
  29 h     dx  0.0000535-0.0004481 0.0002020-0.0011806 0.0007933-0.0005472
           dy  0.0002614-0.0001276 0.0000282-0.0006402-0.0007442-0.0009423
           dz  0.0000633-0.0000595 0.0000155-0.0000725-0.0000745-0.0002946
  30 h     dx  0.0000535-0.0004481-0.0002020-0.0011806 0.0007933 0.0005472
           dy  0.0002614-0.0001276-0.0000282-0.0006402-0.0007442 0.0009423
           dz -0.0000633 0.0000595 0.0000155 0.0000725 0.0000745-0.0002946

   ATOM              5 c                           6 c 
                  dx        dy        dz        dx        dy        dz
   5 c     dx  0.6857369
           dy -0.0191501 0.6598635
           dz  0.0000000 0.0000000 0.1481170
   6 c     dx -0.2983026-0.0606543 0.0000000 0.6761223
           dy -0.0352227-0.1127474 0.0000000 0.0282669 0.6222811
           dz  0.0000000 0.0000000-0.0664448 0.0000000 0.0000000 0.1405411
   7 c     dx  0.0013216-0.0042858 0.0000000-0.0012405 0.0002898 0.0000000
           dy -0.0102762 0.0013817 0.0000000 0.0027657-0.0022548 0.0000000
           dz  0.0000000 0.0000000 0.0060154 0.0000000 0.0000000-0.0002459
   8 c     dx  0.0015594-0.0033551 0.0000000-0.0051971-0.0005605 0.0000000
           dy  0.0040199-0.0048937 0.0000000-0.0037147-0.0000428 0.0000000
           dz  0.0000000 0.0000000 0.0003659 0.0000000 0.0000000 0.0001171
   9 n     dx -0.0021364 0.0022733 0.0000000 0.0054095 0.0023552 0.0000000
           dy  0.0021188-0.0006546 0.0000000-0.0042668-0.0034553 0.0000000
           dz  0.0000000 0.0000000-0.0001972 0.0000000 0.0000000-0.0009822
  10 c     dx -0.0016700-0.0014012 0.0000000-0.0045365 0.0045866 0.0000000
           dy -0.0038414-0.0004144 0.0000000 0.0113283 0.0074467 0.0000000
           dz  0.0000000 0.0000000-0.0002397 0.0000000 0.0000000 0.0056744
  11 c     dx  0.0008109 0.0001304 0.0000000-0.0013969 0.0018250 0.0000000
           dy -0.0014303-0.0028098 0.0000000-0.0034236 0.0063632 0.0000000
           dz  0.0000000 0.0000000-0.0000451 0.0000000 0.0000000 0.0032689
  12 c     dx  0.0060980 0.0023160 0.0000000-0.0076350-0.0413746 0.0000000
           dy  0.0002252-0.0030357 0.0000000-0.0271364-0.0110400 0.0000000
           dz  0.0000000 0.0000000 0.0045500 0.0000000 0.0000000 0.0056076
  13 c     dx -0.0014285 0.0002724 0.0000000 0.0023002 0.0116395 0.0000000
           dy -0.0001612 0.0006990 0.0000000 0.0069667-0.0033770 0.0000000
           dz  0.0000000 0.0000000-0.0002502 0.0000000 0.0000000-0.0006783
  14 n     dx  0.0105397 0.0024494 0.0000000-0.0511247 0.0076875 0.0000000
           dy -0.0026595-0.0030214 0.0000000 0.0187479-0.0049325 0.0000000
           dz  0.0000000 0.0000000 0.0021436 0.0000000 0.0000000 0.0157628
  15 c     dx -0.0460848 0.0238521 0.0000000-0.1430907 0.1008354 0.0000000
           dy  0.0275034 0.0072789 0.0000000 0.0872277-0.1409245 0.0000000
           dz  0.0000000 0.0000000 0.0030508 0.0000000 0.0000000-0.0567922
  16 c     dx -0.0014823 0.0103843 0.0000000-0.0066222-0.0084327 0.0000000
           dy  0.0174600-0.0300224 0.0000000 0.0010030-0.0048974 0.0000000
           dz  0.0000000 0.0000000 0.0086067 0.0000000 0.0000000 0.0004652
  17 c     dx -0.0854997-0.0117388 0.0000000-0.0245441-0.0377737 0.0000000
           dy -0.0395626-0.2250735 0.0000000-0.0365479-0.0182136 0.0000000
           dz  0.0000000 0.0000000-0.0602022 0.0000000 0.0000000 0.0064955
  18 c     dx  0.0001439-0.0004181 0.0000000 0.0002951-0.0004257 0.0000000
           dy  0.0023287 0.0026469 0.0000000 0.0032410-0.0008140 0.0000000
           dz  0.0000000 0.0000000 0.0002953 0.0000000 0.0000000-0.0001435
  19 c     dx -0.0445788 0.0184660 0.0000000 0.0028644 0.0023177 0.0000000
           dy  0.0055698 0.0145390 0.0000000 0.0007374-0.0027264 0.0000000
           dz  0.0000000 0.0000000 0.0065048 0.0000000 0.0000000 0.0047723
  20 n     dx  0.0059444-0.0063656 0.0000000-0.0008031-0.0005219 0.0000000
           dy  0.0045567-0.0063423 0.0000000 0.0027354 0.0028780 0.0000000
           dz  0.0000000 0.0000000-0.0004627 0.0000000 0.0000000-0.0002361
  21 c     dx -0.0254747-0.0413507 0.0000000 0.0152144 0.0073513 0.0000000
           dy -0.0338564-0.0223726 0.0000000 0.0035086-0.0070736 0.0000000
           dz  0.0000000 0.0000000-0.0015177 0.0000000 0.0000000 0.0021011
  22 h     dx  0.0004014 0.0045220 0.0000000-0.0008880-0.0014812 0.0000000
           dy -0.0025988-0.0016852 0.0000000 0.0011181 0.0004382 0.0000000
           dz  0.0000000 0.0000000 0.0084949 0.0000000 0.0000000-0.0001938
  23 h     dx -0.0000198 0.0000489-0.0000435-0.0000229 0.0001245 0.0000233
           dy -0.0000048-0.0000431-0.0001521 0.0000437 0.0000997-0.0000565
           dz  0.0000236-0.0000566-0.0000243-0.0000202 0.0000046 0.0000026
  24 h     dx -0.0000198 0.0000489 0.0000435-0.0000229 0.0001245-0.0000233
           dy -0.0000048-0.0000431 0.0001521 0.0000437 0.0000997 0.0000565
           dz -0.0000236 0.0000566-0.0000243 0.0000202-0.0000046 0.0000026
  25 h     dx -0.0000198 0.0005468 0.0000000 0.0001497-0.0002054 0.0000000
           dy -0.0002687-0.0000198 0.0000000-0.0000125-0.0000351 0.0000000
           dz  0.0000000 0.0000000-0.0006598 0.0000000 0.0000000-0.0001072
  26 h     dx  0.0000496-0.0000772 0.0000000-0.0000387 0.0002158 0.0000000
           dy -0.0002894-0.0001633 0.0000000-0.0001716 0.0003391 0.0000000
           dz  0.0000000 0.0000000-0.0003831 0.0000000 0.0000000-0.0003535
  27 h     dx -0.0001631-0.0003865-0.0001254-0.0007870 0.0008674 0.0010896
           dy  0.0003230 0.0000891 0.0001608-0.0005660-0.0011378-0.0000027
           dz  0.0000199 0.0000846 0.0000155 0.0001008-0.0000256-0.0002946
  28 h     dx -0.0001631-0.0003865 0.0001254-0.0007870 0.0008674-0.0010896
           dy  0.0003230 0.0000891-0.0001608-0.0005660-0.0011378 0.0000027
           dz -0.0000199-0.0000846 0.0000155-0.0001008 0.0000256-0.0002946
  29 h     dx -0.0004101-0.0032694-0.0018028 0.0007144-0.0003957-0.0001629
           dy  0.0026056-0.0013032-0.0001501 0.0003897-0.0007049 0.0001695
           dz  0.0001066-0.0006298-0.0004765 0.0001033 0.0000922-0.0001482
  30 h     dx -0.0004101-0.0032694 0.0018028 0.0007144-0.0003957 0.0001629
           dy  0.0026056-0.0013032 0.0001501 0.0003897-0.0007049-0.0001695
           dz -0.0001066 0.0006298-0.0004765-0.0001033-0.0000922-0.0001482

   ATOM              7 c                           8 c 
                  dx        dy        dz        dx        dy        dz
   7 c     dx  0.5419594
           dy -0.0659595 0.7971481
           dz  0.0000000 0.0000000 0.1296964
   8 c     dx  0.0020276 0.0010920 0.0000000 0.0584016
           dy  0.0155980-0.5760269 0.0000000-0.2011753 0.9348796
           dz  0.0000000 0.0000000-0.0343152 0.0000000 0.0000000 0.0616085
   9 n     dx -0.0159502-0.0025245 0.0000000 0.0554216 0.0150199 0.0000000
           dy  0.0002756 0.0006978 0.0000000-0.0251064-0.0156317 0.0000000
           dz  0.0000000 0.0000000 0.0008649 0.0000000 0.0000000-0.0086680
  10 c     dx  0.0007708-0.0010741 0.0000000-0.0444583-0.0057271 0.0000000
           dy  0.0006651-0.0116935 0.0000000 0.0474343 0.0149564 0.0000000
           dz  0.0000000 0.0000000-0.0033694 0.0000000 0.0000000 0.0017028
  11 c     dx -0.0025723 0.0033665 0.0000000 0.0147667 0.0018038 0.0000000
           dy  0.0025922-0.0034085 0.0000000-0.0109230-0.0005078 0.0000000
           dz  0.0000000 0.0000000 0.0002366 0.0000000 0.0000000 0.0002674
  12 c     dx -0.0020090-0.0009264 0.0000000-0.0052076-0.0008478 0.0000000
           dy -0.0007431 0.0017013 0.0000000 0.0010391-0.0008227 0.0000000
           dz  0.0000000 0.0000000 0.0002458 0.0000000 0.0000000 0.0003932
  13 c     dx -0.0000815 0.0010599 0.0000000 0.0036546-0.0000813 0.0000000
           dy -0.0040826 0.0032107 0.0000000 0.0138533 0.0029751 0.0000000
           dz  0.0000000 0.0000000 0.0003257 0.0000000 0.0000000 0.0001314
  14 n     dx  0.0021562-0.0020054 0.0000000-0.0093797-0.0020378 0.0000000
           dy  0.0011914-0.0018780 0.0000000-0.0043595-0.0006051 0.0000000
           dz  0.0000000 0.0000000-0.0004868 0.0000000 0.0000000-0.0002101
  15 c     dx -0.0016415 0.0014243 0.0000000 0.0102148 0.0029461 0.0000000
           dy  0.0001601 0.0021209 0.0000000 0.0013586-0.0005232 0.0000000
           dz  0.0000000 0.0000000-0.0005538 0.0000000 0.0000000 0.0002326
  16 c     dx  0.0018278-0.0049428 0.0000000-0.0088199-0.0003730 0.0000000
           dy  0.0000254-0.0005737 0.0000000-0.0029406-0.0011477 0.0000000
           dz  0.0000000 0.0000000-0.0002783 0.0000000 0.0000000-0.0006136
  17 c     dx  0.0000508 0.0021156 0.0000000 0.0010788-0.0003900 0.0000000
           dy  0.0019324-0.0003585 0.0000000 0.0047525 0.0020504 0.0000000
           dz  0.0000000 0.0000000 0.0002458 0.0000000 0.0000000 0.0003257
  18 c     dx -0.2848169-0.0116830 0.0000000-0.0102687-0.0239804 0.0000000
           dy -0.0338964-0.0034655 0.0000000 0.0423340-0.0079615 0.0000000
           dz  0.0000000 0.0000000-0.0664239 0.0000000 0.0000000-0.0043744
  19 c     dx -0.0034163 0.0080240 0.0000000-0.0007602-0.0022304 0.0000000
           dy -0.0044420-0.0184553 0.0000000-0.0267122-0.0073675 0.0000000
           dz  0.0000000 0.0000000-0.0039392 0.0000000 0.0000000-0.0001414
  20 n     dx  0.0002637 0.0011090 0.0000000 0.0024708 0.0003714 0.0000000
           dy -0.0029575 0.0060142 0.0000000 0.0180698 0.0060277 0.0000000
           dz  0.0000000 0.0000000 0.0006299 0.0000000 0.0000000-0.0000297
  21 c     dx -0.0018361 0.0027944 0.0000000 0.0091084 0.0032301 0.0000000
           dy  0.0009074-0.0041942 0.0000000-0.0107046-0.0024787 0.0000000
           dz  0.0000000 0.0000000 0.0003932 0.0000000 0.0000000 0.0001314
  22 h     dx -0.0000615 0.0000501 0.0000000-0.0002192-0.0001704 0.0000000
           dy -0.0000137-0.0001982 0.0000000 0.0000097 0.0001749 0.0000000
           dz  0.0000000 0.0000000-0.0000937 0.0000000 0.0000000 0.0000494
  23 h     dx -0.0155008 0.0018350-0.0200994-0.0006189 0.0023739 0.0000446
           dy -0.0112603-0.0068092 0.0042711-0.0053799 0.0044615-0.0101212
           dz  0.0032812-0.0009662 0.0071979-0.0001220 0.0005314 0.0015283
  24 h     dx -0.0155008 0.0018350 0.0200994-0.0006189 0.0023739-0.0000446
           dy -0.0112603-0.0068092-0.0042711-0.0053799 0.0044615 0.0101212
           dz -0.0032812 0.0009662 0.0071979 0.0001220-0.0005314 0.0015283
  25 h     dx -0.0105243-0.0211561 0.0000000-0.0821316 0.1755457 0.0000000
           dy  0.0077654-0.0027565 0.0000000 0.1475090-0.3003946 0.0000000
           dz  0.0000000 0.0000000 0.0001025 0.0000000 0.0000000-0.0197876
  26 h     dx  0.0001232-0.0000977 0.0000000-0.0000901-0.0000554 0.0000000
           dy  0.0003014 0.0002748 0.0000000-0.0002600-0.0002916 0.0000000
           dz  0.0000000 0.0000000 0.0000662 0.0000000 0.0000000 0.0001095
  27 h     dx -0.0000169-0.0001517-0.0000119-0.0002248 0.0002289 0.0002538
           dy  0.0000203 0.0000647 0.0000025 0.0002235-0.0000562-0.0001384
           dz -0.0000021 0.0000363-0.0000104 0.0000551-0.0000094-0.0000144
  28 h     dx -0.0000169-0.0001517 0.0000119-0.0002248 0.0002289-0.0002538
           dy  0.0000203 0.0000647-0.0000025 0.0002235-0.0000562 0.0001384
           dz  0.0000021-0.0000363-0.0000104-0.0000551 0.0000094-0.0000144
  29 h     dx -0.0001144 0.0002691 0.0000144-0.0000060-0.0002038 0.0000087
           dy -0.0001167 0.0000300 0.0000247 0.0000260-0.0000693-0.0000018
           dz  0.0000017 0.0000398 0.0000290 0.0000366-0.0000433 0.0000113
  30 h     dx -0.0001144 0.0002691-0.0000144-0.0000060-0.0002038-0.0000087
           dy -0.0001167 0.0000300-0.0000247 0.0000260-0.0000693 0.0000018
           dz -0.0000017-0.0000398 0.0000290-0.0000366 0.0000433 0.0000113

   ATOM              9 n                          10 c 
                  dx        dy        dz        dx        dy        dz
   9 n     dx  0.1160851
           dy -0.3057286 0.8563073
           dz  0.0000000 0.0000000 0.0288610
  10 c     dx -0.1257070 0.2859030 0.0000000 0.2046964
           dy  0.3006213-0.8007856 0.0000000-0.2384221 1.1033743
           dz  0.0000000 0.0000000-0.0396580 0.0000000 0.0000000 0.0881094
  11 c     dx -0.0189495 0.0188665 0.0000000 0.0379799-0.0254817 0.0000000
           dy  0.0135884-0.0112917 0.0000000-0.0244033 0.0101930 0.0000000
           dz  0.0000000 0.0000000 0.0006612 0.0000000 0.0000000-0.0085294
  12 c     dx  0.0053771-0.0040612 0.0000000-0.0162466-0.0006164 0.0000000
           dy  0.0000053 0.0009009 0.0000000 0.0118496-0.0056250 0.0000000
           dz  0.0000000 0.0000000 0.0006299 0.0000000 0.0000000-0.0039392
  13 c     dx -0.0028468 0.0026987 0.0000000 0.0068169-0.0021442 0.0000000
           dy -0.0149997 0.0113453 0.0000000 0.0223377-0.0149445 0.0000000
           dz  0.0000000 0.0000000-0.0000297 0.0000000 0.0000000-0.0001414
  14 n     dx  0.0087965-0.0053019 0.0000000-0.0119342 0.0058460 0.0000000
           dy  0.0048464-0.0030483 0.0000000-0.0071292 0.0030606 0.0000000
           dz  0.0000000 0.0000000 0.0002859 0.0000000 0.0000000-0.0000334
  15 c     dx -0.0092647 0.0058502 0.0000000 0.0112347-0.0061305 0.0000000
           dy -0.0014801 0.0016108 0.0000000-0.0003041-0.0041907 0.0000000
           dz  0.0000000 0.0000000-0.0003481 0.0000000 0.0000000 0.0007220
  16 c     dx  0.0064242-0.0046992 0.0000000-0.0055295 0.0061630 0.0000000
           dy  0.0024144-0.0020354 0.0000000-0.0021058 0.0028201 0.0000000
           dz  0.0000000 0.0000000 0.0005004 0.0000000 0.0000000-0.0003627
  17 c     dx -0.0012219 0.0000550 0.0000000 0.0018664 0.0006009 0.0000000
           dy -0.0031418 0.0015001 0.0000000 0.0018651-0.0013870 0.0000000
           dz  0.0000000 0.0000000-0.0004868 0.0000000 0.0000000-0.0005538
  18 c     dx -0.0066236 0.0031113 0.0000000 0.0026903-0.0059170 0.0000000
           dy -0.0204113 0.0090345 0.0000000 0.0111063-0.0148303 0.0000000
           dz  0.0000000 0.0000000 0.0027564 0.0000000 0.0000000 0.0000951
  19 c     dx -0.0012438 0.0003261 0.0000000-0.0031206-0.0021575 0.0000000
           dy  0.0133013-0.0076298 0.0000000-0.0079840 0.0101646 0.0000000
           dz  0.0000000 0.0000000-0.0000334 0.0000000 0.0000000 0.0007220
  20 n     dx -0.0002843 0.0000591 0.0000000 0.0007843-0.0000484 0.0000000
           dy -0.0100892 0.0060325 0.0000000 0.0072819-0.0084382 0.0000000
           dz  0.0000000 0.0000000 0.0002859 0.0000000 0.0000000-0.0003481
  21 c     dx -0.0055689 0.0042380 0.0000000 0.0040253-0.0065196 0.0000000
           dy  0.0065597-0.0044159 0.0000000-0.0049321 0.0056663 0.0000000
           dz  0.0000000 0.0000000-0.0002101 0.0000000 0.0000000 0.0002326
  22 h     dx  0.0000505 0.0000251 0.0000000 0.0002804 0.0001497 0.0000000
           dy  0.0000665 0.0000179 0.0000000-0.0002541-0.0000886 0.0000000
           dz  0.0000000 0.0000000-0.0000862 0.0000000 0.0000000 0.0000158
  23 h     dx  0.0000747 0.0001449 0.0003154 0.0004116-0.0000062-0.0000502
           dy -0.0002423 0.0000213 0.0006322-0.0000889 0.0002996 0.0012078
           dz  0.0001578-0.0000350 0.0000064 0.0000331 0.0000739 0.0000251
  24 h     dx  0.0000747 0.0001449-0.0003154 0.0004116-0.0000062 0.0000502
           dy -0.0002423 0.0000213-0.0006322-0.0000889 0.0002996-0.0012078
           dz -0.0001578 0.0000350 0.0000064-0.0000331-0.0000739 0.0000251
  25 h     dx -0.0019185 0.0035177 0.0000000-0.0001450-0.0020461 0.0000000
           dy -0.0026897 0.0015363 0.0000000 0.0001975-0.0007862 0.0000000
           dz  0.0000000 0.0000000-0.0013523 0.0000000 0.0000000 0.0011105
  26 h     dx  0.0001031-0.0000976 0.0000000-0.0001973 0.0001780 0.0000000
           dy  0.0002694-0.0001538 0.0000000 0.0001002 0.0008039 0.0000000
           dz  0.0000000 0.0000000-0.0000589 0.0000000 0.0000000 0.0001330
  27 h     dx  0.0001158 0.0002952 0.0003749-0.0006686-0.0007967-0.0025881
           dy -0.0004290 0.0003712-0.0001418 0.0010336-0.0001996 0.0015807
           dz -0.0001576 0.0001609 0.0000259 0.0006280-0.0000968 0.0005267
  28 h     dx  0.0001158 0.0002952-0.0003749-0.0006686-0.0007967 0.0025881
           dy -0.0004290 0.0003712 0.0001418 0.0010336-0.0001996-0.0015807
           dz  0.0001576-0.0001609 0.0000259-0.0006280 0.0000968 0.0005267
  29 h     dx -0.0000446 0.0000361 0.0000384 0.0000352-0.0000396-0.0000012
           dy -0.0000232-0.0000241 0.0000246 0.0000817 0.0000321-0.0000211
           dz -0.0000258-0.0000011-0.0000033-0.0000036-0.0000129 0.0000092
  30 h     dx -0.0000446 0.0000361-0.0000384 0.0000352-0.0000396 0.0000012
           dy -0.0000232-0.0000241-0.0000246 0.0000817 0.0000321 0.0000211
           dz  0.0000258 0.0000011-0.0000033 0.0000036 0.0000129 0.0000092

   ATOM             11 c                          12 c 
                  dx        dy        dz        dx        dy        dz
  11 c     dx  0.1641470
           dy  0.2427869 0.4312027
           dz  0.0000000 0.0000000 0.5951210
  12 c     dx -0.0540669-0.1215406 0.0000000 0.7904735
           dy -0.0993272-0.2342155 0.0000000-0.0775202 0.5486340
           dz  0.0000000 0.0000000-0.0664239 0.0000000 0.0000000 0.1296964
  13 c     dx -0.0164857 0.0275697 0.0000000-0.4387403 0.2388795 0.0000000
           dy -0.0387447-0.0017445 0.0000000 0.2533855-0.1352590 0.0000000
           dz  0.0000000 0.0000000-0.0043744 0.0000000 0.0000000-0.0343152
  14 n     dx  0.0126111-0.0142165 0.0000000-0.0024903-0.0080466 0.0000000
           dy  0.0093062-0.0102002 0.0000000-0.0052465-0.0127620 0.0000000
           dz  0.0000000 0.0000000 0.0027564 0.0000000 0.0000000 0.0008649
  15 c     dx -0.0126972 0.0148009 0.0000000-0.0084003 0.0046299 0.0000000
           dy -0.0022224 0.0005572 0.0000000 0.0063690-0.0025224 0.0000000
           dz  0.0000000 0.0000000 0.0000951 0.0000000 0.0000000-0.0033694
  16 c     dx  0.0069327-0.0075790 0.0000000-0.0057796-0.0007404 0.0000000
           dy  0.0026445-0.0027049 0.0000000-0.0015148-0.0002012 0.0000000
           dz  0.0000000 0.0000000-0.0002827 0.0000000 0.0000000 0.0002366
  17 c     dx -0.0021026 0.0026736 0.0000000 0.0014966-0.0012808 0.0000000
           dy -0.0022946 0.0033567 0.0000000-0.0010976-0.0018044 0.0000000
           dz  0.0000000 0.0000000-0.0002783 0.0000000 0.0000000 0.0002458
  18 c     dx -0.0024322 0.0021722 0.0000000 0.0021560-0.0002149 0.0000000
           dy -0.0080513 0.0066600 0.0000000 0.0047533-0.0009019 0.0000000
           dz  0.0000000 0.0000000-0.0002827 0.0000000 0.0000000-0.0002783
  19 c     dx  0.0024895-0.0015332 0.0000000 0.0004942-0.0013932 0.0000000
           dy  0.0067356-0.0051989 0.0000000-0.0026574-0.0000148 0.0000000
           dz  0.0000000 0.0000000-0.0003627 0.0000000 0.0000000-0.0005538
  20 n     dx -0.0009098 0.0004649 0.0000000-0.0005170 0.0003519 0.0000000
           dy -0.0066487 0.0052986 0.0000000 0.0035487 0.0007952 0.0000000
           dz  0.0000000 0.0000000 0.0005004 0.0000000 0.0000000-0.0004868
  21 c     dx -0.0045005 0.0028668 0.0000000 0.0036965 0.0019014 0.0000000
           dy  0.0054344-0.0054671 0.0000000-0.0032411-0.0005673 0.0000000
           dz  0.0000000 0.0000000-0.0006136 0.0000000 0.0000000 0.0003257
  22 h     dx -0.0000914 0.0003738 0.0000000 0.0001487-0.0003161 0.0000000
           dy  0.0000625-0.0003112 0.0000000 0.0000830 0.0002493 0.0000000
           dz  0.0000000 0.0000000 0.0001270 0.0000000 0.0000000 0.0000662
  23 h     dx -0.0000011-0.0000215-0.0000342-0.0000720 0.0000922-0.0000142
           dy  0.0000307-0.0000102-0.0000811-0.0002935-0.0000123 0.0000248
           dz  0.0000559-0.0000593-0.0000106-0.0000336 0.0000214 0.0000290
  24 h     dx -0.0000011-0.0000215 0.0000342-0.0000720 0.0000922 0.0000142
           dy  0.0000307-0.0000102 0.0000811-0.0002935-0.0000123-0.0000248
           dz -0.0000559 0.0000593-0.0000106 0.0000336-0.0000214 0.0000290
  25 h     dx  0.0001901-0.0002273 0.0000000-0.0001798 0.0000819 0.0000000
           dy -0.0001942 0.0000897 0.0000000 0.0000182-0.0000799 0.0000000
           dz  0.0000000 0.0000000 0.0002416 0.0000000 0.0000000-0.0000937
  26 h     dx  0.0006875-0.0007917 0.0000000 0.0010999-0.0144766 0.0000000
           dy  0.0086095 0.0009665 0.0000000 0.0144449-0.0143807 0.0000000
           dz  0.0000000 0.0000000 0.0002932 0.0000000 0.0000000 0.0001025
  27 h     dx -0.0521498-0.0585406-0.0839054-0.0049008 0.0051404-0.0137486
           dy -0.0443223-0.0830428-0.0955979-0.0079549-0.0174092-0.0152710
           dz -0.0775338-0.0974720-0.2657913 0.0024774 0.0023585 0.0071979
  28 h     dx -0.0521498-0.0585406 0.0839054-0.0049008 0.0051404 0.0137486
           dy -0.0443223-0.0830428 0.0955979-0.0079549-0.0174092 0.0152710
           dz  0.0775338 0.0974720-0.2657913-0.0024774-0.0023585 0.0071979
  29 h     dx -0.0000853 0.0001706 0.0000504 0.0001012-0.0000884 0.0000081
           dy -0.0000307 0.0000463 0.0000462 0.0000835-0.0000533 0.0000091
           dz -0.0000276 0.0000271 0.0000020 0.0000324-0.0000163-0.0000104
  30 h     dx -0.0000853 0.0001706-0.0000504 0.0001012-0.0000884-0.0000081
           dy -0.0000307 0.0000463-0.0000462 0.0000835-0.0000533-0.0000091
           dz  0.0000276-0.0000271 0.0000020-0.0000324 0.0000163-0.0000104

   ATOM             13 c                          14 n 
                  dx        dy        dz        dx        dy        dz
  13 c     dx  0.8899830
           dy -0.2789384 0.1032982
           dz  0.0000000 0.0000000 0.0616085
  14 n     dx  0.0064992 0.0533517 0.0000000 0.9360204
           dy  0.0132255 0.0332907 0.0000000-0.1676613 0.0363719
           dz  0.0000000 0.0000000-0.0086680 0.0000000 0.0000000 0.0288610
  15 c     dx -0.0179571-0.0627348 0.0000000-0.8859884 0.1383274 0.0000000
           dy -0.0095734-0.0115449 0.0000000 0.1530457-0.0405042 0.0000000
           dz  0.0000000 0.0000000 0.0017028 0.0000000 0.0000000-0.0396580
  16 c     dx  0.0072595 0.0152573 0.0000000-0.0272595-0.0087905 0.0000000
           dy  0.0025304 0.0069994 0.0000000-0.0140687-0.0029817 0.0000000
           dz  0.0000000 0.0000000 0.0002674 0.0000000 0.0000000 0.0006612
  17 c     dx -0.0020018-0.0028900 0.0000000 0.0037761 0.0009190 0.0000000
           dy -0.0010030-0.0040286 0.0000000 0.0049855 0.0025018 0.0000000
           dz  0.0000000 0.0000000 0.0003932 0.0000000 0.0000000 0.0006299
  18 c     dx -0.0016309-0.0012100 0.0000000 0.0010688 0.0006775 0.0000000
           dy -0.0037776-0.0083367 0.0000000 0.0077911 0.0033200 0.0000000
           dz  0.0000000 0.0000000-0.0006136 0.0000000 0.0000000 0.0005004
  19 c     dx  0.0002973 0.0043672 0.0000000-0.0030004-0.0021366 0.0000000
           dy  0.0027797 0.0093943 0.0000000-0.0094670-0.0046535 0.0000000
           dz  0.0000000 0.0000000 0.0002326 0.0000000 0.0000000-0.0003481
  20 n     dx -0.0000287-0.0010393 0.0000000 0.0001101 0.0001686 0.0000000
           dy -0.0033610-0.0099561 0.0000000 0.0103169 0.0056380 0.0000000
           dz  0.0000000 0.0000000-0.0002101 0.0000000 0.0000000 0.0002859
  21 c     dx -0.0028185-0.0101160 0.0000000 0.0131238 0.0057791 0.0000000
           dy  0.0038186 0.0094482 0.0000000-0.0119193-0.0046253 0.0000000
           dz  0.0000000 0.0000000 0.0001314 0.0000000 0.0000000-0.0000297
  22 h     dx -0.0001047 0.0002684 0.0000000-0.0001640-0.0001152 0.0000000
           dy  0.0000638-0.0002771 0.0000000 0.0002518 0.0001133 0.0000000
           dz  0.0000000 0.0000000 0.0001095 0.0000000 0.0000000-0.0000589
  23 h     dx  0.0000236-0.0000430 0.0000059-0.0000348 0.0000176-0.0000021
           dy  0.0001867-0.0000988 0.0000066-0.0000417-0.0000339 0.0000456
           dz  0.0000558 0.0000101 0.0000113-0.0000119-0.0000229-0.0000033
  24 h     dx  0.0000236-0.0000430-0.0000059-0.0000348 0.0000176 0.0000021
           dy  0.0001867-0.0000988-0.0000066-0.0000417-0.0000339-0.0000456
           dz -0.0000558-0.0000101 0.0000113 0.0000119 0.0000229-0.0000033
  25 h     dx  0.0001460-0.0002205 0.0000000-0.0000136-0.0000295 0.0000000
           dy -0.0000404-0.0001902 0.0000000 0.0000119 0.0000821 0.0000000
           dz  0.0000000 0.0000000 0.0000494 0.0000000 0.0000000-0.0000862
  26 h     dx -0.3857156 0.0277653 0.0000000 0.0003140 0.0014007 0.0000000
           dy -0.0002714 0.0031894 0.0000000-0.0048067-0.0006962 0.0000000
           dz  0.0000000 0.0000000-0.0197876 0.0000000 0.0000000-0.0013523
  27 h     dx  0.0044930 0.0024285 0.0087875 0.0000768 0.0002411-0.0003898
           dy -0.0053253-0.0006505-0.0050220-0.0001462 0.0000192 0.0005892
           dz -0.0005212 0.0001600 0.0015283 0.0001092 0.0001192 0.0000064
  28 h     dx  0.0044930 0.0024285-0.0087875 0.0000768 0.0002411 0.0003898
           dy -0.0053253-0.0006505 0.0050220-0.0001462 0.0000192-0.0005892
           dz  0.0005212-0.0001600 0.0015283-0.0001092-0.0001192 0.0000064
  29 h     dx -0.0002943-0.0001834-0.0002467 0.0003653 0.0002850-0.0003103
           dy -0.0001888 0.0000132-0.0001506-0.0004392 0.0001217-0.0002538
           dz -0.0000357-0.0000431-0.0000144 0.0002182 0.0000561 0.0000259
  30 h     dx -0.0002943-0.0001834 0.0002467 0.0003653 0.0002850 0.0003103
           dy -0.0001888 0.0000132 0.0001506-0.0004392 0.0001217 0.0002538
           dz  0.0000357 0.0000431-0.0000144-0.0002182-0.0000561 0.0000259

   ATOM             15 c                          16 c 
                  dx        dy        dz        dx        dy        dz
  15 c     dx  1.0851845
           dy -0.2699279 0.2228863
           dz  0.0000000 0.0000000 0.0881094
  16 c     dx  0.0387405 0.0239641 0.0000000 0.1541792
           dy  0.0250426 0.0094323 0.0000000-0.2370319 0.4411705
           dz  0.0000000 0.0000000-0.0085294 0.0000000 0.0000000 0.5951210
  17 c     dx -0.0131445-0.0136406 0.0000000-0.0935398 0.1221169 0.0000000
           dy -0.0011746-0.0087271 0.0000000 0.1443303-0.1947426 0.0000000
           dz  0.0000000 0.0000000-0.0039392 0.0000000 0.0000000-0.0664239
  18 c     dx -0.0010241-0.0004954 0.0000000 0.0018412 0.0002951 0.0000000
           dy -0.0087642-0.0016853 0.0000000 0.0105186 0.0023866 0.0000000
           dz  0.0000000 0.0000000-0.0003627 0.0000000 0.0000000-0.0002827
  19 c     dx  0.0024519 0.0053748 0.0000000-0.0082031-0.0003723 0.0000000
           dy  0.0112013 0.0045921 0.0000000-0.0173956-0.0039369 0.0000000
           dz  0.0000000 0.0000000 0.0007220 0.0000000 0.0000000 0.0000951
  20 n     dx -0.0001324 0.0003155 0.0000000-0.0023711-0.0006562 0.0000000
           dy -0.0126597-0.0087411 0.0000000 0.0228664 0.0047821 0.0000000
           dz  0.0000000 0.0000000-0.0000334 0.0000000 0.0000000 0.0027564
  21 c     dx -0.0182482-0.0078663 0.0000000-0.0005909 0.0295678 0.0000000
           dy  0.0166155 0.0101205 0.0000000-0.0367466-0.0176393 0.0000000
           dz  0.0000000 0.0000000-0.0001414 0.0000000 0.0000000-0.0043744
  22 h     dx  0.0004332-0.0004642 0.0000000-0.0024884-0.0067759 0.0000000
           dy -0.0005420 0.0001735 0.0000000 0.0026253 0.0041425 0.0000000
           dz  0.0000000 0.0000000 0.0001330 0.0000000 0.0000000 0.0002932
  23 h     dx  0.0000146-0.0000698 0.0000177-0.0000472 0.0000087-0.0000148
           dy  0.0000515 0.0000527-0.0000116-0.0001926 0.0000082 0.0000668
           dz  0.0000094-0.0000096 0.0000092-0.0000373-0.0000103 0.0000020
  24 h     dx  0.0000146-0.0000698-0.0000177-0.0000472 0.0000087 0.0000148
           dy  0.0000515 0.0000527 0.0000116-0.0001926 0.0000082-0.0000668
           dz -0.0000094 0.0000096 0.0000092 0.0000373 0.0000103 0.0000020
  25 h     dx  0.0000489 0.0003878 0.0000000-0.0004451 0.0001417 0.0000000
           dy -0.0000160 0.0001430 0.0000000-0.0001695 0.0000425 0.0000000
           dz  0.0000000 0.0000000 0.0000158 0.0000000 0.0000000 0.0001270
  26 h     dx  0.0001746-0.0003820 0.0000000 0.0002973 0.0001323 0.0000000
           dy  0.0018616-0.0011058 0.0000000 0.0001654-0.0000175 0.0000000
           dz  0.0000000 0.0000000 0.0011105 0.0000000 0.0000000 0.0002416
  27 h     dx  0.0003688 0.0001136-0.0010711-0.0000119-0.0000244 0.0000532
           dy  0.0000309 0.0003424 0.0005604 0.0000278 0.0000006-0.0000701
           dz -0.0000474 0.0000656 0.0000251 0.0000793 0.0000188-0.0000106
  28 h     dx  0.0003688 0.0001136 0.0010711-0.0000119-0.0000244-0.0000532
           dy  0.0000309 0.0003424-0.0005604 0.0000278 0.0000006 0.0000701
           dz  0.0000474-0.0000656 0.0000251-0.0000793-0.0000188-0.0000106
  29 h     dx -0.0004194-0.0011775 0.0026630-0.0307786 0.0319836-0.0408375
           dy  0.0006529-0.0004487 0.0014510 0.0462019-0.1044139 0.1204632
           dz -0.0003978-0.0004954 0.0005267-0.0456463 0.1158822-0.2657913
  30 h     dx -0.0004194-0.0011775-0.0026630-0.0307786 0.0319836 0.0408375
           dy  0.0006529-0.0004487-0.0014510 0.0462019-0.1044139-0.1204632
           dz  0.0003978 0.0004954 0.0005267 0.0456463-0.1158822-0.2657913

   ATOM             17 c                          18 c 
                  dx        dy        dz        dx        dy        dz
  17 c     dx  0.6762283
           dy  0.1434797 0.6628791
           dz  0.0000000 0.0000000 0.1296964
  18 c     dx -0.0006193-0.0014646 0.0000000 0.5746984
           dy -0.0022389-0.0053616 0.0000000-0.0057549 0.0206513
           dz  0.0000000 0.0000000 0.0002366 0.0000000 0.0000000 0.5951210
  19 c     dx -0.0087545-0.0061645 0.0000000-0.0044612 0.0009784 0.0000000
           dy -0.0044254-0.0021682 0.0000000-0.0001000 0.0526340 0.0000000
           dz  0.0000000 0.0000000-0.0033694 0.0000000 0.0000000-0.0085294
  20 n     dx -0.0044380 0.0063710 0.0000000 0.0008472-0.0074369 0.0000000
           dy  0.0091711-0.0108144 0.0000000-0.0021587-0.0310884 0.0000000
           dz  0.0000000 0.0000000 0.0008649 0.0000000 0.0000000 0.0006612
  21 c     dx -0.4242863-0.2617304 0.0000000-0.0006379-0.0106977 0.0000000
           dy -0.2472245-0.1497130 0.0000000 0.0020292 0.0148968 0.0000000
           dz  0.0000000 0.0000000-0.0343152 0.0000000 0.0000000 0.0002674
  22 h     dx -0.0104968-0.0077495 0.0000000-0.0000677 0.0000453 0.0000000
           dy  0.0211720-0.0027840 0.0000000 0.0000785 0.0003475 0.0000000
           dz  0.0000000 0.0000000 0.0001025 0.0000000 0.0000000 0.0002416
  23 h     dx -0.0000126-0.0000178-0.0000038-0.1198605 0.0052295-0.1247429
           dy  0.0001541 0.0000604 0.0000115 0.0194478-0.0153321 0.0248653
           dz  0.0000304 0.0000199-0.0000104-0.1231801 0.0184102-0.2657913
  24 h     dx -0.0000126-0.0000178 0.0000038-0.1198605 0.0052295 0.1247429
           dy  0.0001541 0.0000604-0.0000115 0.0194478-0.0153321-0.0248653
           dz -0.0000304-0.0000199-0.0000104 0.1231801-0.0184102-0.2657913
  25 h     dx  0.0003251-0.0001848 0.0000000 0.0042820-0.0065342 0.0000000
           dy  0.0002143 0.0000729 0.0000000 0.0028670-0.0026279 0.0000000
           dz  0.0000000 0.0000000 0.0000662 0.0000000 0.0000000 0.0002932
  26 h     dx -0.0001483-0.0000364 0.0000000-0.0000673-0.0000486 0.0000000
           dy -0.0001002-0.0001115 0.0000000-0.0003598-0.0003353 0.0000000
           dz  0.0000000 0.0000000-0.0000937 0.0000000 0.0000000 0.0001270
  27 h     dx  0.0000599 0.0002173-0.0000286 0.0000740 0.0001226-0.0000653
           dy -0.0001684-0.0001443 0.0000002-0.0000786-0.0001130 0.0000206
           dz -0.0000353-0.0000184 0.0000290-0.0000097-0.0000374 0.0000020
  28 h     dx  0.0000599 0.0002173 0.0000286 0.0000740 0.0001226 0.0000653
           dy -0.0001684-0.0001443-0.0000002-0.0000786-0.0001130-0.0000206
           dz  0.0000353 0.0000184 0.0000290 0.0000097 0.0000374 0.0000020
  29 h     dx -0.0130634 0.0126676-0.0063508-0.0000040-0.0000324-0.0000873
           dy -0.0004277-0.0092466 0.0195421 0.0000199-0.0000073-0.0000110
           dz  0.0008038-0.0033247 0.0071979-0.0000234-0.0000781-0.0000106
  30 h     dx -0.0130634 0.0126676 0.0063508-0.0000040-0.0000324 0.0000873
           dy -0.0004277-0.0092466-0.0195421 0.0000199-0.0000073 0.0000110
           dz -0.0008038 0.0033247 0.0071979 0.0000234 0.0000781-0.0000106

   ATOM             19 c                          20 n 
                  dx        dy        dz        dx        dy        dz
  19 c     dx  0.6722252
           dy  0.5083500 0.6358455
           dz  0.0000000 0.0000000 0.0881094
  20 n     dx -0.3780435-0.4315895 0.0000000 0.4064830
           dy -0.4463078-0.5484491 0.0000000 0.4733899 0.5659093
           dz  0.0000000 0.0000000-0.0396580 0.0000000 0.0000000 0.0288610
  21 c     dx  0.0181625 0.0418812 0.0000000-0.0022360-0.0483085 0.0000000
           dy -0.0112802-0.0476644 0.0000000-0.0081822 0.0420258 0.0000000
           dz  0.0000000 0.0000000 0.0017028 0.0000000 0.0000000-0.0086680
  22 h     dx -0.0014264-0.0009373 0.0000000 0.0010312 0.0043926 0.0000000
           dy  0.0013063 0.0004952 0.0000000-0.0018148-0.0014134 0.0000000
           dz  0.0000000 0.0000000 0.0011105 0.0000000 0.0000000-0.0013523
  23 h     dx -0.0002142-0.0007713 0.0000749 0.0002494 0.0005061 0.0000646
           dy  0.0010590-0.0006539 0.0030318-0.0002181 0.0002376-0.0003956
           dz  0.0002302-0.0005922 0.0005267 0.0000605 0.0002170 0.0000259
  24 h     dx -0.0002142-0.0007713-0.0000749 0.0002494 0.0005061-0.0000646
           dy  0.0010590-0.0006539-0.0030318-0.0002181 0.0002376 0.0003956
           dz -0.0002302 0.0005922 0.0005267-0.0000605-0.0002170 0.0000259
  25 h     dx  0.0006741 0.0004029 0.0000000-0.0000152-0.0003377 0.0000000
           dy  0.0003251-0.0000674 0.0000000 0.0000293-0.0000355 0.0000000
           dz  0.0000000 0.0000000 0.0001330 0.0000000 0.0000000-0.0000589
  26 h     dx -0.0000415 0.0000682 0.0000000 0.0000658-0.0000577 0.0000000
           dy -0.0003356 0.0002334 0.0000000-0.0000163 0.0000027 0.0000000
           dz  0.0000000 0.0000000 0.0000158 0.0000000 0.0000000-0.0000862
  27 h     dx  0.0000511-0.0000725 0.0000189-0.0000237 0.0000353-0.0000405
           dy  0.0000488 0.0000162 0.0000096-0.0000240-0.0000451 0.0000209
           dz  0.0000130 0.0000034 0.0000092 0.0000139-0.0000218-0.0000033
  28 h     dx  0.0000511-0.0000725-0.0000189-0.0000237 0.0000353 0.0000405
           dy  0.0000488 0.0000162-0.0000096-0.0000240-0.0000451-0.0000209
           dz -0.0000130-0.0000034 0.0000092-0.0000139 0.0000218-0.0000033
  29 h     dx  0.0002865 0.0000167 0.0010209-0.0000075 0.0001949 0.0007052
           dy -0.0000661 0.0004247 0.0006474-0.0001924 0.0001035 0.0000430
           dz  0.0000806 0.0000083 0.0000251 0.0000486-0.0001542 0.0000064
  30 h     dx  0.0002865 0.0000167-0.0010209-0.0000075 0.0001949-0.0007052
           dy -0.0000661 0.0004247-0.0006474-0.0001924 0.0001035-0.0000430
           dz -0.0000806-0.0000083 0.0000251-0.0000486 0.0001542 0.0000064

   ATOM             21 c                          22 h 
                  dx        dy        dz        dx        dy        dz
  21 c     dx  0.5415372
           dy  0.4801138 0.4517441
           dz  0.0000000 0.0000000 0.0616085
  22 h     dx -0.1059421-0.1612560 0.0000000 0.1197346
           dy -0.1892926-0.2765841 0.0000000 0.1681363 0.2776342
           dz  0.0000000 0.0000000-0.0197876 0.0000000 0.0000000 0.0131707
  23 h     dx  0.0000975-0.0000374 0.0000070-0.0000124 0.0000078-0.0000072
           dy -0.0000428-0.0003786-0.0002889 0.0000776-0.0000641 0.0000224
           dz  0.0000195-0.0000524-0.0000144 0.0000023 0.0000002-0.0000032
  24 h     dx  0.0000975-0.0000374-0.0000070-0.0000124 0.0000078 0.0000072
           dy -0.0000428-0.0003786 0.0002889 0.0000776-0.0000641-0.0000224
           dz -0.0000195 0.0000524-0.0000144-0.0000023-0.0000002-0.0000032
  25 h     dx -0.0003779 0.0000939 0.0000000-0.0000193-0.0000171 0.0000000
           dy -0.0001107-0.0000039 0.0000000-0.0000454-0.0000100 0.0000000
           dz  0.0000000 0.0000000 0.0001095 0.0000000 0.0000000-0.0000181
  26 h     dx  0.0000068 0.0001208 0.0000000-0.0000394 0.0000056 0.0000000
           dy  0.0003009-0.0000511 0.0000000 0.0000338 0.0000101 0.0000000
           dz  0.0000000 0.0000000 0.0000494 0.0000000 0.0000000-0.0000181
  27 h     dx -0.0001304-0.0000978-0.0000028 0.0000351-0.0000440 0.0000512
           dy  0.0001319 0.0000552 0.0000084-0.0000467 0.0000394-0.0000194
           dz  0.0000192 0.0000533 0.0000113-0.0000180 0.0000105-0.0000077
  28 h     dx -0.0001304-0.0000978 0.0000028 0.0000351-0.0000440-0.0000512
           dy  0.0001319 0.0000552-0.0000084-0.0000467 0.0000394 0.0000194
           dz -0.0000192-0.0000533 0.0000113 0.0000180-0.0000105-0.0000077
  29 h     dx  0.0018898 0.0068283-0.0087429-0.0002041 0.0001615 0.0016858
           dy -0.0009255 0.0019528-0.0050992 0.0003636-0.0001828 0.0009206
           dz  0.0003992 0.0003714 0.0015283-0.0000961-0.0000210-0.0003901
  30 h     dx  0.0018898 0.0068283 0.0087429-0.0002041 0.0001615-0.0016858
           dy -0.0009255 0.0019528 0.0050992 0.0003636-0.0001828-0.0009206
           dz -0.0003992-0.0003714 0.0015283 0.0000961 0.0000210-0.0003901

   ATOM             23 h                          24 h 
                  dx        dy        dz        dx        dy        dz
  23 h     dx  0.1275964
           dy -0.0071804 0.0164604
           dz  0.1317887-0.0198699 0.2717753
  24 h     dx  0.0104360-0.0001314-0.0129938 0.1275964
           dy -0.0001314 0.0032756 0.0026180-0.0071804 0.0164604
           dz  0.0129938-0.0026180-0.0139805-0.1317887 0.0198699 0.2717753
  25 h     dx -0.0004155-0.0000395-0.0000299-0.0004155-0.0000395 0.0000299
           dy -0.0002415 0.0000286-0.0000937-0.0002415 0.0000286 0.0000937
           dz  0.0000456 0.0019202-0.0003901-0.0000456-0.0019202-0.0003901
  26 h     dx -0.0000010 0.0000232 0.0000000-0.0000010 0.0000232-0.0000000
           dy  0.0000259 0.0000754 0.0000208 0.0000259 0.0000754-0.0000208
           dz  0.0000088-0.0000541-0.0000077-0.0000088 0.0000541-0.0000077
  27 h     dx -0.0000069-0.0000273-0.0000008-0.0000037 0.0000314 0.0000007
           dy  0.0000016 0.0000018 0.0000031-0.0000035 0.0000027-0.0000033
           dz  0.0000030-0.0000052-0.0000017 0.0000000 0.0000033 0.0000017
  28 h     dx -0.0000037 0.0000314-0.0000007-0.0000069-0.0000273 0.0000008
           dy -0.0000035 0.0000027 0.0000033 0.0000016 0.0000018-0.0000031
           dz -0.0000000-0.0000033 0.0000017-0.0000030 0.0000052-0.0000017
  29 h     dx -0.0000115 0.0000246-0.0000030 0.0000132-0.0000216-0.0000029
           dy -0.0000043 0.0000064-0.0000052 0.0000132-0.0000142-0.0000016
           dz  0.0000023 0.0000022-0.0000017 0.0000025 0.0000023 0.0000017
  30 h     dx  0.0000132-0.0000216 0.0000029-0.0000115 0.0000246 0.0000030
           dy  0.0000132-0.0000142 0.0000016-0.0000043 0.0000064 0.0000052
           dz -0.0000025-0.0000023 0.0000017-0.0000023-0.0000022-0.0000017

   ATOM             25 h                          26 h 
                  dx        dy        dz        dx        dy        dz
  25 h     dx  0.0925490
           dy -0.1524407 0.3048198
           dz  0.0000000 0.0000000 0.0131707
  26 h     dx  0.0000148 0.0000257 0.0000000 0.3837696
           dy -0.0000026-0.0000441 0.0000000-0.0156956 0.0135992
           dz  0.0000000 0.0000000-0.0000181 0.0000000 0.0000000 0.0131707
  27 h     dx -0.0000881-0.0000339-0.0000230 0.0000392-0.0002231-0.0016402
           dy  0.0000359 0.0000117 0.0000050-0.0000211-0.0004261 0.0009996
           dz  0.0000010 0.0000020-0.0000032 0.0000662-0.0000727-0.0003901
  28 h     dx -0.0000881-0.0000339 0.0000230 0.0000392-0.0002231 0.0016402
           dy  0.0000359 0.0000117-0.0000050-0.0000211-0.0004261-0.0009996
           dz -0.0000010-0.0000020-0.0000032-0.0000662 0.0000727-0.0003901
  29 h     dx  0.0000776 0.0000222-0.0000424-0.0000142-0.0000786 0.0000158
           dy  0.0000194-0.0000031-0.0000346-0.0000088-0.0000623 0.0000174
           dz  0.0000181 0.0000104-0.0000077 0.0000013-0.0000019-0.0000032
  30 h     dx  0.0000776 0.0000222 0.0000424-0.0000142-0.0000786-0.0000158
           dy  0.0000194-0.0000031 0.0000346-0.0000088-0.0000623-0.0000174
           dz -0.0000181-0.0000104-0.0000077-0.0000013 0.0000019-0.0000032

   ATOM             27 h                          28 h 
                  dx        dy        dz        dx        dy        dz
  27 h     dx  0.0504628
           dy  0.0517135 0.0935940
           dz  0.0831022 0.1041974 0.2717753
  28 h     dx  0.0051795 0.0031662-0.0087641 0.0504628
           dy  0.0031662 0.0085321-0.0099439 0.0517135 0.0935940
           dz  0.0087641 0.0099439-0.0139805-0.0831022-0.1041974 0.2717753
  29 h     dx -0.0000110 0.0000077-0.0000032 0.0000108-0.0000118 0.0000031
           dy -0.0000272 0.0000100 0.0000010 0.0000171-0.0000158-0.0000009
           dz  0.0000028-0.0000017 0.0000017-0.0000060 0.0000000-0.0000017
  30 h     dx  0.0000108-0.0000118-0.0000031-0.0000110 0.0000077 0.0000032
           dy  0.0000171-0.0000158 0.0000009-0.0000272 0.0000100-0.0000010
           dz  0.0000060-0.0000000-0.0000017-0.0000028 0.0000017 0.0000017

   ATOM             29 h                          30 h 
                  dx        dy        dz        dx        dy        dz
  29 h     dx  0.0380260
           dy -0.0445331 0.1060308
           dz  0.0486864-0.1240673 0.2717753
  30 h     dx  0.0049519-0.0030348-0.0042297 0.0380260
           dy -0.0030348 0.0087597 0.0125619-0.0445331 0.1060308
           dz  0.0042297-0.0125619-0.0139805-0.0486864 0.1240673 0.2717753
 

   *** projected hessian written onto $hessian (projected), file=<hessian> ***

 dipole moment in principle axis system (a.u.) :
    -0.0000000000     0.0000000000     0.0000000000
 norm :  7.835041789045565E-013

 rotational constants b for rotations around axis of inertia
 and optical intensities for (1 <-- 0) transition

   b   :     0.0127969193     0.0127969193     0.0064244173   (cm**(-1))
   b   :         383.6420         383.6420         192.5992     (MHz)
  int. :     0.0000000000     0.0000000000     0.0000000000     (a.u.)

   x   :     1.0000000000     0.0000000000     0.0000000000
   y   :     0.0000000000     1.0000000000     0.0000000000
   z   :     0.0000000000     0.0000000000     1.0000000000

   ***  normal modes written onto $vibrational normal modes, file=<vib_normal_modes>  ***

   ***  vibrational spectroscopic data written onto$vibrational spectrum   
        file=<vibspectrum>  ***

          ---------------------------------------------------
          NORMAL MODES and VIBRATIONAL FREQUENCIES (cm**(-1))
          ---------------------------------------------------

 imaginary wave numbers indicate a negative curvature of the energy surface.
 zero frequency modes have no physical meaning except being generators of
 translations and rotations. each vibrational normal mode - given in terms of
 cartesian displacement vectors of all atoms - has been normalized to unity.
 to obtain mass-weigthed normal coordinates in a.u. divide the tabulated
 modes by sqrt(reduced mass * 1822.88853).
 band intensities or cross sections refer to independent non-degenerate normal
 modes, that is, the intensities of degenerate modes have yet to be added.
 dDIP/dQ is the normal mode derivative of the dipole moment.

 WARNING: values of IR intensities are questionable for saddle point structures


       mode               1        2        3        4        5        6

     frequency        i589.88  i336.47  i336.47   i83.91   i83.91     0.00

     symmetry            a'       e'       e'       e'       e'           

        IR               NO       YES      YES      YES      YES       - 
|dDIP/dQ|   (a.u.)     0.0000   0.0000   0.0000   0.0000   0.0000   0.0000
intensity (km/mol)       0.00     0.00     0.00     0.00     0.00     0.00
intensity (  %   )       0.00     0.00     0.00     0.00     0.00     0.00
 
       RAMAN             YES      YES      YES      YES      YES       - 
 
  1   c           x   0.00599  0.01174  0.01869  0.03674 -0.00049 -0.01581
                  y  -0.00661 -0.00125 -0.00570  0.01601  0.04084  0.00226
                  z   0.00000 -0.00000 -0.00000 -0.00000  0.00000 -0.01002
  2   c           x  -0.01170  0.02441  0.02638  0.02937  0.00884 -0.01230
                  y  -0.00089  0.01448 -0.00203  0.01054  0.04122  0.00549
                  z  -0.00000 -0.00000 -0.00000 -0.00000  0.00000  0.06210
  3   c           x   0.00663  0.00247  0.02715  0.04665 -0.00057 -0.01479
                  y  -0.00969  0.01371 -0.02396  0.00113  0.02394 -0.00241
                  z   0.00000 -0.00000 -0.00000  0.00000  0.00000  0.00131
  4   c           x   0.00273 -0.00142  0.00636  0.04654 -0.01035 -0.01024
                  y   0.00849  0.01109 -0.01887  0.00614  0.03104 -0.00383
                  z  -0.00000 -0.00000 -0.00000  0.00000 -0.00000  0.08524
  5   c           x   0.00508  0.01277  0.00777  0.02986 -0.01083 -0.00671
                  y   0.01058  0.03309 -0.01366 -0.00912  0.04073 -0.00062
                  z  -0.00000 -0.00000 -0.00000 -0.00000 -0.00000  0.15774
  6   c           x  -0.00872  0.01584  0.00112  0.03310 -0.01390 -0.00775
                  y  -0.00188  0.01633 -0.00160  0.00259  0.04449  0.00404
                  z   0.00000 -0.00000 -0.00000 -0.00000  0.00000  0.14595
  7   c           x   0.03047  0.00859  0.03055 -0.01404 -0.04297 -0.01821
                  y  -0.05288  0.03277 -0.06201 -0.06213 -0.01288 -0.00593
                  z   0.00000  0.00000 -0.00000  0.00000  0.00000 -0.06967
  8   c           x  -0.40001  0.25977 -0.50471 -0.16929 -0.08079 -0.02268
                  y  -0.07586  0.04415 -0.09473 -0.06345 -0.00852 -0.00569
                  z   0.00000  0.00000 -0.00000 -0.00000  0.00000 -0.15412
  9   n           x   0.18209 -0.13202  0.30700  0.14030 -0.11862 -0.02429
                  y   0.06535 -0.07644  0.07820  0.05138  0.05042  0.00185
                  z  -0.00000 -0.00000 -0.00000  0.00000  0.00000 -0.17170
 10   c           x  -0.13004  0.12474  0.04723  0.03976 -0.12228 -0.02056
                  y   0.01059 -0.00630 -0.00212  0.01666  0.05996  0.00347
                  z   0.00000 -0.00000 -0.00000  0.00000  0.00000 -0.09819
 11   c           x   0.25294 -0.26831 -0.13342 -0.01197  0.34578 -0.01828
                  y  -0.15626  0.15282  0.06124  0.03400 -0.19512  0.01194
                  z  -0.00000 -0.00000 -0.00000  0.00000  0.00000 -0.04040
 12   c           x  -0.06103  0.04769  0.05535  0.03234  0.03536 -0.01364
                  y   0.00006  0.00797 -0.02291  0.01619 -0.05926  0.01021
                  z  -0.00000  0.00000 -0.00000  0.00000  0.00000  0.04470
 13   c           x   0.13431 -0.10167 -0.16453  0.01374 -0.04223 -0.01119
                  y   0.38435 -0.29603 -0.45617 -0.02488 -0.19156  0.01396
                  z  -0.00000 -0.00000 -0.00000  0.00000  0.00000  0.09767
 14   n           x  -0.03445  0.07438  0.04272  0.10201 -0.02927 -0.00386
                  y  -0.19038  0.18783  0.28460  0.14073  0.08872  0.01159
                  z   0.00000 -0.00000  0.00000 -0.00000 -0.00000  0.23274
 15   c           x   0.07419  0.05595 -0.04601  0.10064 -0.05182 -0.00432
                  y   0.10732  0.08694 -0.07091  0.08713 -0.00092  0.00755
                  z   0.00000 -0.00000  0.00000 -0.00000 -0.00000  0.21696
 16   c           x  -0.26179 -0.23695  0.17092 -0.31378  0.14025  0.00187
                  y  -0.14092 -0.15152  0.09260 -0.17153  0.10669  0.00134
[...]
                  z  -0.00000  0.00000  0.00000 -0.00000  0.00000 -0.00000
 13   c           x   0.01416 -0.04074 -0.03263 -0.01606 -0.31826  0.22218
                  y  -0.00588  0.01781  0.01186  0.00904  0.18659 -0.13023
                  z   0.00000 -0.00000  0.00000  0.00000 -0.00000 -0.00000
 14   n           x  -0.00817  0.01348 -0.02802  0.00066 -0.01825  0.01871
                  y   0.00220 -0.00551  0.00877 -0.00011  0.00489 -0.00368
                  z  -0.00000 -0.00000  0.00000 -0.00000  0.00000  0.00000
 15   c           x  -0.00341  0.01573 -0.00347  0.00308  0.01802 -0.01605
                  y  -0.00043 -0.01053 -0.01513  0.00399 -0.00442 -0.00575
                  z  -0.00000  0.00000 -0.00000 -0.00000  0.00000 -0.00000
 16   c           x  -0.00843  0.00848 -0.00588 -0.01165  0.00954  0.01602
                  y   0.01138 -0.00514 -0.00313  0.01583 -0.01006 -0.01702
                  z   0.00000 -0.00000  0.00000  0.00000  0.00000  0.00000
 17   c           x  -0.01823  0.00617  0.00943 -0.33175  0.20948  0.26681
                  y   0.02319  0.09607  0.04008 -0.26933  0.17581  0.24347
                  z   0.00000 -0.00000 -0.00000  0.00000 -0.00000 -0.00000
 18   c           x   0.08785  0.00415 -0.00764 -0.02144 -0.01017 -0.02275
                  y   0.00682 -0.00338 -0.00747 -0.00388 -0.00027 -0.00536
                  z  -0.00000 -0.00000  0.00000  0.00000  0.00000 -0.00000
 19   c           x   0.00588  0.01834 -0.00902 -0.01208  0.00476  0.00305
                  y  -0.00579 -0.00497 -0.01252 -0.00927  0.01073  0.01677
                  z  -0.00000  0.00000 -0.00000  0.00000 -0.00000 -0.00000
 20   n           x   0.00251 -0.01295 -0.02077  0.01178 -0.00632 -0.01254
                  y   0.00215 -0.01276 -0.01767  0.01183 -0.00623 -0.01436
                  z  -0.00000  0.00000  0.00000 -0.00000 -0.00000  0.00000
 21   c           x   0.01650 -0.04092  0.01771  0.26982 -0.17410 -0.22388
                  y   0.01068 -0.03253  0.01168  0.15320 -0.09929 -0.12729
                  z   0.00000  0.00000 -0.00000 -0.00000  0.00000 -0.00000
 22   h           x   0.01262 -0.05537 -0.01534  0.33274 -0.21206 -0.27914
                  y   0.02060 -0.03698  0.03978  0.25729 -0.16816 -0.21058
                  z   0.00000 -0.00000  0.00000  0.00000  0.00000  0.00000
 23   h           x  -0.31173  0.06258  0.01663 -0.01697 -0.01414 -0.01822
                  y   0.01647  0.02404 -0.01287  0.03699  0.01961  0.02917
                  z   0.23396 -0.03391 -0.01645 -0.00385  0.00222 -0.00403
 24   h           x  -0.31173  0.06258  0.01663 -0.01697 -0.01414 -0.01822
                  y   0.01647  0.02404 -0.01287  0.03699  0.01961  0.02917
                  z  -0.23396  0.03391  0.01645  0.00385 -0.00222  0.00403
 25   h           x   0.00864 -0.03430 -0.02482 -0.06252 -0.02908 -0.04280
                  y   0.01300 -0.02750  0.06084  0.44026  0.22710  0.34703
                  z   0.00000 -0.00000 -0.00000  0.00000 -0.00000  0.00000
 26   h           x   0.01721 -0.05304 -0.03832 -0.02335 -0.46288  0.32193
                  y   0.01335 -0.01400  0.04210  0.00647  0.18793 -0.13645
                  z  -0.00000 -0.00000  0.00000  0.00000 -0.00000  0.00000
 27   h           x  -0.21984  0.02209  0.00067  0.00057 -0.04711  0.03437
                  y  -0.38338  0.04001 -0.05336  0.00402  0.00207  0.00120
                  z   0.31577 -0.03120  0.02115 -0.00385 -0.00222  0.00403
 28   h           x  -0.21984  0.02209  0.00067  0.00057 -0.04711  0.03437
                  y  -0.38338  0.04001 -0.05336  0.00402  0.00207  0.00120
                  z  -0.31577  0.03120 -0.02115  0.00385  0.00222 -0.00403
 29   h           x   0.08050  0.02851  0.04372  0.02036 -0.01544 -0.01615
                  y  -0.10387 -0.00304 -0.04694  0.03569 -0.01772 -0.03037
                  z  -0.08181 -0.00271 -0.03759 -0.00000  0.00445  0.00403
 30   h           x   0.08050  0.02851  0.04372  0.02036 -0.01544 -0.01615
                  y  -0.10387 -0.00304 -0.04694  0.03569 -0.01772 -0.03037
                  z   0.08181  0.00271  0.03759  0.00000 -0.00445 -0.00403

reduced mass(g/mol)     1.629   11.701   11.701    7.809    7.809    7.898


       mode              79       80       81       82       83       84

     frequency        2017.78  2037.02  2037.02  3104.71  3104.74  3104.74

     symmetry            a'       e'       e'       a'       e'       e'  

        IR               NO       YES      YES      NO       YES      YES
|dDIP/dQ|   (a.u.)     0.0000   0.0062   0.0062   0.0000   0.0004   0.0004
intensity (km/mol)       0.00    68.95    68.95     0.00     0.35     0.35
intensity (  %   )       0.00    59.03    59.03     0.00     0.30     0.30
 
       RAMAN             YES      YES      YES      YES      YES      YES
 
  1   c           x  -0.02681  0.00817  0.01959 -0.00007  0.00014 -0.00029
                  y  -0.06414 -0.04622  0.06626 -0.00005 -0.00001  0.00003
                  z  -0.00000 -0.00000 -0.00000 -0.00000  0.00000 -0.00000
  2   c           x   0.01122  0.00094  0.00689 -0.00034  0.00004  0.00056
                  y  -0.00952 -0.00020  0.03388 -0.00010  0.00006  0.00011
                  z   0.00000  0.00000  0.00000 -0.00000  0.00000 -0.00000
  3   c           x   0.00263 -0.02824  0.01665  0.00026 -0.00029  0.00025
                  y   0.01448 -0.00996  0.00470 -0.00024  0.00037 -0.00022
                  z   0.00000  0.00000  0.00000 -0.00000  0.00000 -0.00000
  4   c           x   0.06895 -0.07615  0.00246  0.00008  0.00013 -0.00001
                  y   0.00885 -0.02910 -0.01806 -0.00004 -0.00029  0.00002
                  z  -0.00000 -0.00000  0.00000  0.00000 -0.00000  0.00000
  5   c           x  -0.01385 -0.02211 -0.01351  0.00008  0.00014  0.00012
                  y  -0.00496  0.02019  0.01083  0.00034  0.00050  0.00022
                  z  -0.00000 -0.00000  0.00000 -0.00000  0.00000 -0.00000
  6   c           x  -0.04214 -0.01916 -0.06200 -0.00001 -0.00011 -0.00015
                  y   0.05528  0.03537  0.03893  0.00009 -0.00014 -0.00022
                  z  -0.00000 -0.00000  0.00000  0.00000 -0.00000 -0.00000
  7   c           x   0.00387 -0.00108 -0.00407  0.00175 -0.00193  0.00153
                  y  -0.01487 -0.01442  0.02031  0.00015 -0.00026  0.00017
                  z  -0.00000 -0.00000 -0.00000 -0.00000 -0.00000  0.00000
  8   c           x   0.03180  0.00739 -0.02210  0.00024 -0.00028  0.00023
                  y   0.02192  0.00793 -0.01921  0.00015 -0.00015  0.00014
                  z  -0.00000  0.00000  0.00000  0.00000  0.00000 -0.00000
  9   n           x   0.11569  0.08338 -0.15106  0.00013 -0.00008 -0.00002
                  y  -0.31951 -0.21855  0.39601 -0.00012  0.00004  0.00008
                  z   0.00000  0.00000 -0.00000  0.00000  0.00000 -0.00000
 10   c           x  -0.11953 -0.08647  0.16113 -0.00011  0.00000  0.00023
                  y   0.44240  0.30240 -0.54475  0.00015 -0.00009 -0.00002
                  z  -0.00000 -0.00000  0.00000  0.00000 -0.00000  0.00000
 11   c           x  -0.01855 -0.00789  0.01049  0.02118 -0.00443 -0.02957
                  y   0.01607  0.00722 -0.00097  0.02927 -0.00611 -0.04101
                  z   0.00000  0.00000 -0.00000 -0.00000  0.00000  0.00000
 12   c           x  -0.01481 -0.01102 -0.02016 -0.00074  0.00016  0.00095
                  y   0.00408  0.00167  0.01037 -0.00159  0.00032  0.00226
                  z   0.00000 -0.00000 -0.00000 -0.00000  0.00000  0.00000
 13   c           x   0.00308  0.00325  0.00553  0.00001 -0.00001  0.00000
                  y  -0.03850 -0.01971 -0.02335 -0.00028  0.00008  0.00041
                  z   0.00000  0.00000 -0.00000  0.00000 -0.00000  0.00000
 14   n           x  -0.33455 -0.24694 -0.40927 -0.00017 -0.00011  0.00003
                  y   0.05956  0.03965  0.06569 -0.00005  0.00000  0.00005
                  z  -0.00000 -0.00000  0.00000 -0.00000  0.00000 -0.00000
 15   c           x   0.44290  0.32577  0.54041  0.00019  0.00015 -0.00000
                  y  -0.11768 -0.07689 -0.13250  0.00002  0.00014  0.00013
                  z  -0.00000  0.00000 -0.00000  0.00000  0.00000 -0.00000
 16   c           x   0.02319  0.00017  0.01187  0.01476  0.01950  0.00770
                  y   0.00803  0.00584  0.00709 -0.03298 -0.04338 -0.01708
                  z   0.00000  0.00000 -0.00000 -0.00000 -0.00000 -0.00000
 17   c           x   0.01094 -0.01998 -0.00351 -0.00101 -0.00138 -0.00057
                  y   0.01079 -0.01498  0.00140  0.00144  0.00184  0.00072
                  z  -0.00000 -0.00000 -0.00000 -0.00000 -0.00000  0.00000
 18   c           x  -0.00464 -0.00266  0.00421 -0.03594  0.03981 -0.03166
                  y  -0.02409  0.01351  0.00426  0.00371 -0.00402  0.00323
                  z  -0.00000  0.00000  0.00000 -0.00000 -0.00000  0.00000
 19   c           x  -0.32337  0.44812 -0.00625 -0.00008 -0.00012 -0.00002
                  y  -0.32472  0.46977 -0.01016 -0.00017  0.00016 -0.00015
                  z   0.00000  0.00000 -0.00000  0.00000  0.00000 -0.00000
 20   n           x   0.21886 -0.30539  0.00590  0.00004 -0.00005  0.00003
                  y   0.25995 -0.37552  0.00724  0.00017 -0.00001  0.00011
                  z   0.00000  0.00000  0.00000  0.00000 -0.00000  0.00000
 21   c           x  -0.03488  0.02926 -0.00470 -0.00025 -0.00034 -0.00012
                  y   0.01659 -0.00948  0.00265  0.00013  0.00020  0.00008
                  z  -0.00000  0.00000  0.00000  0.00000  0.00000 -0.00000
 22   h           x   0.00859 -0.00671  0.00329 -0.00100 -0.00116 -0.00049
                  y  -0.01667  0.02267 -0.00185 -0.00418 -0.00507 -0.00178
                  z  -0.00000  0.00000 -0.00000 -0.00000  0.00000  0.00000
 23   h           x   0.00335 -0.00497  0.00162  0.20207 -0.22367  0.17790
                  y   0.00393 -0.00030 -0.00159 -0.02399  0.02651 -0.02112
                  z  -0.00574  0.00185  0.00247  0.35298 -0.39067  0.31074
 24   h           x   0.00335 -0.00497  0.00162  0.20207 -0.22367  0.17790
                  y   0.00393 -0.00030 -0.00159 -0.02399  0.02651 -0.02112
                  z   0.00574 -0.00185 -0.00247 -0.35298  0.39067 -0.31074
 25   h           x  -0.01873 -0.00868  0.02153 -0.00312  0.00303 -0.00265
                  y   0.00090  0.00443 -0.00382  0.00296 -0.00291  0.00241
                  z  -0.00000 -0.00000  0.00000 -0.00000 -0.00000  0.00000
 26   h           x   0.01014  0.00810  0.01412  0.00412 -0.00094 -0.00520
                  y   0.01577  0.01184  0.01296  0.00122 -0.00036 -0.00155
                  z   0.00000  0.00000  0.00000  0.00000 -0.00000 -0.00000
 27   h           x   0.00172  0.00078  0.00302 -0.12182  0.02547  0.17036
                  y  -0.00487 -0.00170  0.00415 -0.16300  0.03406  0.22803
                  z   0.00574  0.00306 -0.00037 -0.35298  0.07377  0.49370
 28   h           x   0.00172  0.00078  0.00302 -0.12182  0.02547  0.17036
                  y  -0.00487 -0.00170  0.00415 -0.16300  0.03406  0.22803
                  z  -0.00574 -0.00306  0.00037  0.35298 -0.07377 -0.49370
 29   h           x  -0.00508 -0.00088 -0.00266 -0.08026 -0.10563 -0.04164
                  y   0.00094  0.00398  0.00250  0.18700  0.24605  0.09692
                  z   0.00574 -0.00121  0.00284 -0.35298 -0.46444 -0.18296
 30   h           x  -0.00508 -0.00088 -0.00266 -0.08026 -0.10563 -0.04164
                  y   0.00094  0.00398  0.00250  0.18700  0.24605  0.09692
                  z  -0.00574  0.00121 -0.00284  0.35298  0.46444  0.18296

reduced mass(g/mol)    12.687   12.702   12.702    1.051    1.051    1.051


       mode              85       86       87       88       89       90

     frequency        3205.84  3205.84  3205.90  3325.12  3325.12  3325.27

     symmetry            e"       e"       a"       e'       e'       a'  

        IR               NO       NO       YES      YES      YES      NO 
|dDIP/dQ|   (a.u.)     0.0000   0.0000   0.0010   0.0074   0.0074   0.0000
intensity (km/mol)       0.00     0.00     1.88    96.68    96.68     0.00
intensity (  %   )       0.00     0.00     1.61    82.76    82.76     0.00
 
       RAMAN             YES      YES      NO       YES      YES      YES
 
  1   c           x   0.00000  0.00000  0.00000  0.00011  0.00046 -0.00004
                  y  -0.00000 -0.00000  0.00000 -0.00009  0.00001  0.00017
                  z  -0.00003  0.00006 -0.00006 -0.00000  0.00000  0.00000
  2   c           x   0.00000  0.00000  0.00000 -0.00043 -0.00055  0.00053
                  y   0.00000 -0.00000  0.00000 -0.00030 -0.00010  0.00011
                  z   0.00006  0.00033 -0.00024  0.00000  0.00000 -0.00000
  3   c           x  -0.00000 -0.00000 -0.00000  0.00007 -0.00059 -0.00036
                  y  -0.00000 -0.00000  0.00000 -0.00026  0.00041  0.00040
                  z  -0.00032 -0.00011 -0.00024 -0.00000  0.00000 -0.00000
  4   c           x   0.00000  0.00000 -0.00000 -0.00022  0.00010 -0.00013
                  y   0.00000  0.00000  0.00000  0.00027 -0.00032 -0.00012
                  z  -0.00004 -0.00005 -0.00006  0.00000  0.00000  0.00000
  5   c           x  -0.00000 -0.00000 -0.00000 -0.00014 -0.00014 -0.00017
                  y  -0.00000 -0.00000 -0.00000 -0.00072  0.00019 -0.00051
                  z   0.00025 -0.00022 -0.00024 -0.00000  0.00000 -0.00000
  6   c           x   0.00000  0.00000  0.00000  0.00026 -0.00001  0.00017
                  y   0.00000  0.00000  0.00000  0.00038  0.00016 -0.00006
                  z   0.00006 -0.00001 -0.00006 -0.00000  0.00000  0.00000
  7   c           x   0.00000  0.00000 -0.00000 -0.00051  0.00166  0.00124
                  y   0.00000 -0.00000  0.00000 -0.00322  0.01078  0.00790
                  z   0.00005  0.00004  0.00004 -0.00000 -0.00000 -0.00000
  8   c           x  -0.00000 -0.00000  0.00000 -0.00881  0.02929  0.02154
                  y   0.00000  0.00000 -0.00000  0.02079 -0.06909 -0.05101
                  z   0.00053  0.00024  0.00043  0.00000  0.00000 -0.00000
  9   n           x  -0.00000 -0.00000 -0.00000  0.00002 -0.00014 -0.00003
                  y   0.00000  0.00000  0.00000  0.00002  0.00006 -0.00006
                  z  -0.00001 -0.00002 -0.00001  0.00000  0.00000 -0.00000
 10   c           x   0.00000  0.00000  0.00000  0.00013 -0.00005 -0.00023
                  y   0.00000  0.00000 -0.00000 -0.00005  0.00005  0.00013
                  z  -0.00006 -0.00022  0.00015 -0.00000 -0.00000  0.00000
 11   c           x  -0.00000 -0.00000 -0.00000 -0.00006 -0.00007  0.00011
                  y  -0.00000 -0.00000 -0.00000  0.00045  0.00048 -0.00056
                  z   0.01046  0.08191 -0.05838 -0.00000  0.00000  0.00000
 12   c           x   0.00000  0.00000  0.00000 -0.00610 -0.00644  0.00622
                  y  -0.00000 -0.00000  0.00000  0.00489  0.00519 -0.00502
                  z   0.00001 -0.00006  0.00004  0.00000  0.00000  0.00000
 13   c           x  -0.00000 -0.00000 -0.00000  0.05329  0.05665 -0.05495
                  y   0.00000  0.00000  0.00000 -0.00656 -0.00699  0.00685
                  z  -0.00006 -0.00058  0.00043  0.00000 -0.00000 -0.00000
 14   n           x  -0.00000  0.00000 -0.00000 -0.00011 -0.00006 -0.00003
                  y   0.00000  0.00000  0.00000 -0.00006 -0.00007  0.00006
                  z  -0.00001  0.00002 -0.00001 -0.00000  0.00000  0.00000
 15   c           x  -0.00000 -0.00000  0.00000 -0.00000 -0.00013  0.00023
                  y  -0.00000  0.00000 -0.00000  0.00003 -0.00008  0.00013
                  z  -0.00016  0.00016  0.00015 -0.00000  0.00000 -0.00000
 16   c           x   0.00000 -0.00000 -0.00000 -0.00060  0.00013 -0.00054
                  y  -0.00000  0.00000  0.00000  0.00024 -0.00005  0.00018
                  z   0.06571 -0.05001 -0.05838  0.00000 -0.00000  0.00000
 17   c           x  -0.00000 -0.00000  0.00000 -0.01032  0.00245 -0.00746
                  y   0.00000 -0.00000 -0.00000 -0.00401  0.00097 -0.00288
                  z  -0.00006  0.00002  0.00004 -0.00000  0.00000 -0.00000
 18   c           x  -0.00000 -0.00000  0.00000 -0.00016  0.00050  0.00043
                  y  -0.00000  0.00000 -0.00000 -0.00012  0.00039  0.00037
                  z  -0.07617 -0.03190 -0.05838 -0.00000 -0.00000  0.00000
 19   c           x  -0.00000  0.00000 -0.00000 -0.00001  0.00003  0.00000
                  y   0.00000  0.00000 -0.00000 -0.00013 -0.00008 -0.00026
                  z   0.00022  0.00006  0.00015  0.00000  0.00000 -0.00000
 20   n           x   0.00000 -0.00000  0.00000  0.00003  0.00001  0.00007
                  y  -0.00000 -0.00000 -0.00000 -0.00013  0.00007 -0.00000
                  z   0.00002  0.00000 -0.00001  0.00000  0.00000  0.00000
 21   c           x  -0.00000  0.00000  0.00000  0.04593 -0.01081  0.03341
                  y  -0.00000  0.00000  0.00000  0.06090 -0.01435  0.04416
                  z  -0.00047  0.00034  0.00043  0.00000  0.00000  0.00000
 22   h           x   0.00000 -0.00000 -0.00000 -0.42097  0.09904 -0.30585
                  y   0.00000 -0.00000 -0.00000 -0.66972  0.15755 -0.48646
                  z   0.00108 -0.00088 -0.00109 -0.00000 -0.00000  0.00000
 23   h           x   0.27366  0.11459  0.20980  0.00067 -0.00202 -0.00162
                  y  -0.03693 -0.01546 -0.02835  0.00030 -0.00114 -0.00086
                  z   0.45216  0.18935  0.34661  0.00089 -0.00272 -0.00223
 24   h           x  -0.27366 -0.11459 -0.20980  0.00067 -0.00202 -0.00162
                  y   0.03693  0.01546  0.02835  0.00030 -0.00114 -0.00086
                  z   0.45216  0.18935  0.34661 -0.00089  0.00272  0.00223
 25   h           x   0.00000  0.00000 -0.00000  0.10948 -0.36346 -0.26836
                  y  -0.00000 -0.00000  0.00000 -0.20721  0.68800  0.50810
                  z  -0.00131 -0.00050 -0.00109 -0.00000 -0.00000  0.00000
 26   h           x   0.00000  0.00000  0.00000 -0.55629 -0.59159  0.57421
                  y  -0.00000  0.00000 -0.00000  0.02092  0.02223 -0.02164
                  z   0.00022  0.00138 -0.00109  0.00000 -0.00000 -0.00000
 27   h           x  -0.02319 -0.18154  0.12945  0.00001 -0.00008  0.00006
                  y  -0.03002 -0.23501  0.16752 -0.00164 -0.00179  0.00184
                  z  -0.06210 -0.48625  0.34661 -0.00191 -0.00213  0.00223
 28   h           x   0.02319  0.18154 -0.12945  0.00001 -0.00008  0.00006
                  y   0.03002  0.23501 -0.16752 -0.00164 -0.00179  0.00184
                  z  -0.06210 -0.48625  0.34661  0.00191  0.00213 -0.00223
 29   h           x  -0.09045  0.06885  0.08035  0.00202 -0.00048  0.00156
                  y   0.22037 -0.16775 -0.19587 -0.00124  0.00022 -0.00097
                  z  -0.39006  0.29691  0.34661  0.00280 -0.00059  0.00223
 30   h           x   0.09045 -0.06885 -0.08035  0.00202 -0.00048  0.00156
                  y  -0.22037  0.16775  0.19587 -0.00124  0.00022 -0.00097
                  z  -0.39006  0.29691  0.34661 -0.00280  0.00059 -0.00223

reduced mass(g/mol)     1.121    1.121    1.120    1.111    1.111    1.111
 

         **************************************************************
         *                                                            *
         *  zero point VIBRATIONAL energy  :      0.1930703  Hartree  *
         *    SCF-energy                   :   -854.6423134           *
         *    SCF + E(vib0)                :   -854.4492431           *
         *                                                            *
         **************************************************************




 time elapsed for vibrational analysis     1.42 sec


    ------------------------------------------------------------------------
         total  cpu-time : 42 minutes and 18 seconds
         total wall-time :  5 minutes and 25 seconds
    ------------------------------------------------------------------------

   ****  force : all done  ****


    2018-03-23 00:08:42.788 

