[Molden Format]
[Title]
                                                                                
[Atoms] AU
 c     1    6 -.79957293071496E+00 -.25291462723691E+01 0.00000000000000E+00
 c     2    6 -.25975786443646E+01 -.57568941974621E+00 0.00000000000000E+00
 c     3    6 0.17973509843723E+01 -.19617243844746E+01 0.00000000000000E+00
 c     4    6 0.25900913871159E+01 0.57212266600705E+00 0.00000000000000E+00
 c     5    6 0.80022765999223E+00 0.25374138042207E+01 0.00000000000000E+00
 c     6    6 -.17905184564009E+01 0.19570236063621E+01 0.00000000000000E+00
 c     7    6 0.37615428405374E+01 -.38665860123188E+01 0.00000000000000E+00
 c     8    6 0.36229410316860E+01 -.63567994203031E+01 0.00000000000000E+00
 n     9    7 -.57414132585253E+00 -.72519155998093E+01 0.00000000000000E+00
 c    10    6 -.14724589116058E+01 -.51765600660309E+01 0.00000000000000E+00
 c    11    6 -.61897538194941E+01 -.39078911160521E+01 0.00000000000000E+00
 c    12    6 -.52293331328544E+01 -.13242986511695E+01 0.00000000000000E+00
 c    13    6 -.73166203005876E+01 0.40840740298400E-01 0.00000000000000E+00
 n    14    7 -.59932724726095E+01 0.41231787734556E+01 0.00000000000000E+00
 c    15    6 -.37468030655959E+01 0.38634668564949E+01 0.00000000000000E+00
 c    16    6 -.28945607197771E+00 0.73144296088797E+01 0.00000000000000E+00
 c    17    6 0.14677902923169E+01 0.51908846634883E+01 0.00000000000000E+00
 c    18    6 0.64792098914718E+01 -.34065384928275E+01 0.00000000000000E+00
 c    19    6 0.52192619772017E+01 0.13130932095360E+01 0.00000000000000E+00
 n    20    7 0.65674137984618E+01 0.31287368263542E+01 0.00000000000000E+00
 c    21    6 0.36936792689016E+01 0.63159586800047E+01 0.00000000000000E+00
 h    22    1 0.47490416037954E+01 0.80757480127221E+01 0.00000000000000E+00
 h    23    1 0.75500989274843E+01 -.35412329506946E+01 0.17728050010028E+01
 h    24    1 0.75500989274843E+01 -.35412329506946E+01 -.17728050010028E+01
 h    25    1 0.46192821316814E+01 -.81506646788772E+01 0.00000000000000E+00
 h    26    1 -.93683237354768E+01 0.74916666154910E-01 0.00000000000000E+00
 h    27    1 -.68418471597622E+01 -.47679609969399E+01 -.17728050010028E+01
 h    28    1 -.68418471597622E+01 -.47679609969399E+01 0.17728050010028E+01
 h    29    1 -.70825176772212E+00 0.83091939476344E+01 -.17728050010028E+01
 h    30    1 -.70825176772212E+00 0.83091939476344E+01 0.17728050010028E+01
[GTO]
    1 0
 s    5 1.00
 0.12384016938000E+04 0.55173650481097E-02
 0.18629004992000E+03 0.41088828555946E-01
 0.42251176346000E+02 0.18225382126490E+00
 0.11676557932000E+02 0.46828459437429E+00
 0.35930506482000E+01 0.44575817336002E+00
 s    1 1.00
 0.40245147363000E+00 0.10000000000000E+01
 s    1 1.00
 0.13090182668000E+00 0.10000000000000E+01
 p    3 1.00
 0.94680970621000E+01 0.56888332011037E-01
 0.20103545142000E+01 0.31294059336471E+00
 0.54771004707000E+00 0.76065016509135E+00
 p    1 1.00
 0.15268613795000E+00 0.10000000000000E+01
 d    1 1.00
 0.80000000000000E+00 0.10000000000000E+01
 
    2 0
 s    5 1.00
 0.12384016938000E+04 0.55173650481097E-02
 0.18629004992000E+03 0.41088828555946E-01
 0.42251176346000E+02 0.18225382126490E+00
 0.11676557932000E+02 0.46828459437429E+00
 0.35930506482000E+01 0.44575817336002E+00
 s    1 1.00
 0.40245147363000E+00 0.10000000000000E+01
 s    1 1.00
 0.13090182668000E+00 0.10000000000000E+01
 p    3 1.00
 0.94680970621000E+01 0.56888332011037E-01
 0.20103545142000E+01 0.31294059336471E+00
 0.54771004707000E+00 0.76065016509135E+00
 p    1 1.00
 0.15268613795000E+00 0.10000000000000E+01
 d    1 1.00
 0.80000000000000E+00 0.10000000000000E+01
 
    3 0
 s    5 1.00
 0.12384016938000E+04 0.55173650481097E-02
 0.18629004992000E+03 0.41088828555946E-01
 0.42251176346000E+02 0.18225382126490E+00
 0.11676557932000E+02 0.46828459437429E+00
 0.35930506482000E+01 0.44575817336002E+00
 s    1 1.00
 0.40245147363000E+00 0.10000000000000E+01
 s    1 1.00
 0.13090182668000E+00 0.10000000000000E+01
 p    3 1.00
 0.94680970621000E+01 0.56888332011037E-01
 0.20103545142000E+01 0.31294059336471E+00
 0.54771004707000E+00 0.76065016509135E+00
 p    1 1.00
 0.15268613795000E+00 0.10000000000000E+01
 d    1 1.00
 0.80000000000000E+00 0.10000000000000E+01
 
    4 0
 s    5 1.00
 0.12384016938000E+04 0.55173650481097E-02
 0.18629004992000E+03 0.41088828555946E-01
 0.42251176346000E+02 0.18225382126490E+00
 0.11676557932000E+02 0.46828459437429E+00
 0.35930506482000E+01 0.44575817336002E+00
 s    1 1.00
 0.40245147363000E+00 0.10000000000000E+01
 s    1 1.00
 0.13090182668000E+00 0.10000000000000E+01
 p    3 1.00
 0.94680970621000E+01 0.56888332011037E-01
 0.20103545142000E+01 0.31294059336471E+00
 0.54771004707000E+00 0.76065016509135E+00
 p    1 1.00
 0.15268613795000E+00 0.10000000000000E+01
 d    1 1.00
 0.80000000000000E+00 0.10000000000000E+01
 
    5 0
 s    5 1.00
 0.12384016938000E+04 0.55173650481097E-02
 0.18629004992000E+03 0.41088828555946E-01
 0.42251176346000E+02 0.18225382126490E+00
 0.11676557932000E+02 0.46828459437429E+00
 0.35930506482000E+01 0.44575817336002E+00
 s    1 1.00
 0.40245147363000E+00 0.10000000000000E+01
 s    1 1.00
 0.13090182668000E+00 0.10000000000000E+01
 p    3 1.00
 0.94680970621000E+01 0.56888332011037E-01
 0.20103545142000E+01 0.31294059336471E+00
 0.54771004707000E+00 0.76065016509135E+00
 p    1 1.00
 0.15268613795000E+00 0.10000000000000E+01
 d    1 1.00
 0.80000000000000E+00 0.10000000000000E+01
 
    6 0
 s    5 1.00
 0.12384016938000E+04 0.55173650481097E-02
 0.18629004992000E+03 0.41088828555946E-01
 0.42251176346000E+02 0.18225382126490E+00
 0.11676557932000E+02 0.46828459437429E+00
 0.35930506482000E+01 0.44575817336002E+00
 s    1 1.00
 0.40245147363000E+00 0.10000000000000E+01
 s    1 1.00
 0.13090182668000E+00 0.10000000000000E+01
 p    3 1.00
 0.94680970621000E+01 0.56888332011037E-01
 0.20103545142000E+01 0.31294059336471E+00
 0.54771004707000E+00 0.76065016509135E+00
 p    1 1.00
 0.15268613795000E+00 0.10000000000000E+01
 d    1 1.00
 0.80000000000000E+00 0.10000000000000E+01
 
    7 0
 s    5 1.00
 0.12384016938000E+04 0.55173650481097E-02
 0.18629004992000E+03 0.41088828555946E-01
 0.42251176346000E+02 0.18225382126490E+00
 0.11676557932000E+02 0.46828459437429E+00
 0.35930506482000E+01 0.44575817336002E+00
 s    1 1.00
 0.40245147363000E+00 0.10000000000000E+01
 s    1 1.00
 0.13090182668000E+00 0.10000000000000E+01
 p    3 1.00
 0.94680970621000E+01 0.56888332011037E-01
 0.20103545142000E+01 0.31294059336471E+00
 0.54771004707000E+00 0.76065016509135E+00
 p    1 1.00
 0.15268613795000E+00 0.10000000000000E+01
 d    1 1.00
 0.80000000000000E+00 0.10000000000000E+01
 
    8 0
 s    5 1.00
 0.12384016938000E+04 0.55173650481097E-02
 0.18629004992000E+03 0.41088828555946E-01
 0.42251176346000E+02 0.18225382126490E+00
 0.11676557932000E+02 0.46828459437429E+00
 0.35930506482000E+01 0.44575817336002E+00
 s    1 1.00
 0.40245147363000E+00 0.10000000000000E+01
 s    1 1.00
 0.13090182668000E+00 0.10000000000000E+01
 p    3 1.00
 0.94680970621000E+01 0.56888332011037E-01
 0.20103545142000E+01 0.31294059336471E+00
 0.54771004707000E+00 0.76065016509135E+00
 p    1 1.00
 0.15268613795000E+00 0.10000000000000E+01
 d    1 1.00
 0.80000000000000E+00 0.10000000000000E+01
 
    9 0
 s    5 1.00
 0.17128415853000E+04 -.54477995804909E-02
 0.25764812677000E+03 -.40627174632423E-01
 0.58458245853000E+02 -.18111962250584E+00
 0.16198367905000E+02 -.46843975563173E+00
 0.50052600809000E+01 -.44616846289231E+00
 s    1 1.00
 0.58731856571000E+00 0.10000000000000E+01
 s    1 1.00
 0.18764592253000E+00 0.10000000000000E+01
 p    3 1.00
 0.13571470233000E+02 -.58848116969522E-01
 0.29257372874000E+01 -.32024624762471E+00
 0.79927750754000E+00 -.75328226520436E+00
 p    1 1.00
 0.21954348034000E+00 0.10000000000000E+01
 d    1 1.00
 0.10000000000000E+01 0.10000000000000E+01
 
   10 0
 s    5 1.00
 0.12384016938000E+04 0.55173650481097E-02
 0.18629004992000E+03 0.41088828555946E-01
 0.42251176346000E+02 0.18225382126490E+00
 0.11676557932000E+02 0.46828459437429E+00
 0.35930506482000E+01 0.44575817336002E+00
 s    1 1.00
 0.40245147363000E+00 0.10000000000000E+01
 s    1 1.00
 0.13090182668000E+00 0.10000000000000E+01
 p    3 1.00
 0.94680970621000E+01 0.56888332011037E-01
 0.20103545142000E+01 0.31294059336471E+00
 0.54771004707000E+00 0.76065016509135E+00
 p    1 1.00
 0.15268613795000E+00 0.10000000000000E+01
 d    1 1.00
 0.80000000000000E+00 0.10000000000000E+01
 
   11 0
 s    5 1.00
 0.12384016938000E+04 0.55173650481097E-02
 0.18629004992000E+03 0.41088828555946E-01
 0.42251176346000E+02 0.18225382126490E+00
 0.11676557932000E+02 0.46828459437429E+00
 0.35930506482000E+01 0.44575817336002E+00
 s    1 1.00
 0.40245147363000E+00 0.10000000000000E+01
 s    1 1.00
 0.13090182668000E+00 0.10000000000000E+01
 p    3 1.00
 0.94680970621000E+01 0.56888332011037E-01
 0.20103545142000E+01 0.31294059336471E+00
 0.54771004707000E+00 0.76065016509135E+00
 p    1 1.00
 0.15268613795000E+00 0.10000000000000E+01
 d    1 1.00
 0.80000000000000E+00 0.10000000000000E+01
 
   12 0
 s    5 1.00
 0.12384016938000E+04 0.55173650481097E-02
 0.18629004992000E+03 0.41088828555946E-01
 0.42251176346000E+02 0.18225382126490E+00
 0.11676557932000E+02 0.46828459437429E+00
 0.35930506482000E+01 0.44575817336002E+00
 s    1 1.00
 0.40245147363000E+00 0.10000000000000E+01
 s    1 1.00
 0.13090182668000E+00 0.10000000000000E+01
 p    3 1.00
 0.94680970621000E+01 0.56888332011037E-01
 0.20103545142000E+01 0.31294059336471E+00
 0.54771004707000E+00 0.76065016509135E+00
 p    1 1.00
 0.15268613795000E+00 0.10000000000000E+01
 d    1 1.00
 0.80000000000000E+00 0.10000000000000E+01
 
   13 0
 s    5 1.00
 0.12384016938000E+04 0.55173650481097E-02
 0.18629004992000E+03 0.41088828555946E-01
 0.42251176346000E+02 0.18225382126490E+00
 0.11676557932000E+02 0.46828459437429E+00
 0.35930506482000E+01 0.44575817336002E+00
 s    1 1.00
 0.40245147363000E+00 0.10000000000000E+01
 s    1 1.00
 0.13090182668000E+00 0.10000000000000E+01
 p    3 1.00
 0.94680970621000E+01 0.56888332011037E-01
 0.20103545142000E+01 0.31294059336471E+00
 0.54771004707000E+00 0.76065016509135E+00
 p    1 1.00
 0.15268613795000E+00 0.10000000000000E+01
 d    1 1.00
 0.80000000000000E+00 0.10000000000000E+01
 
   14 0
 s    5 1.00
 0.17128415853000E+04 -.54477995804909E-02
 0.25764812677000E+03 -.40627174632423E-01
 0.58458245853000E+02 -.18111962250584E+00
 0.16198367905000E+02 -.46843975563173E+00
 0.50052600809000E+01 -.44616846289231E+00
 s    1 1.00
 0.58731856571000E+00 0.10000000000000E+01
 s    1 1.00
 0.18764592253000E+00 0.10000000000000E+01
 p    3 1.00
 0.13571470233000E+02 -.58848116969522E-01
 0.29257372874000E+01 -.32024624762471E+00
 0.79927750754000E+00 -.75328226520436E+00
 p    1 1.00
 0.21954348034000E+00 0.10000000000000E+01
 d    1 1.00
 0.10000000000000E+01 0.10000000000000E+01
 
   15 0
 s    5 1.00
 0.12384016938000E+04 0.55173650481097E-02
 0.18629004992000E+03 0.41088828555946E-01
 0.42251176346000E+02 0.18225382126490E+00
 0.11676557932000E+02 0.46828459437429E+00
 0.35930506482000E+01 0.44575817336002E+00
 s    1 1.00
 0.40245147363000E+00 0.10000000000000E+01
 s    1 1.00
 0.13090182668000E+00 0.10000000000000E+01
 p    3 1.00
 0.94680970621000E+01 0.56888332011037E-01
 0.20103545142000E+01 0.31294059336471E+00
 0.54771004707000E+00 0.76065016509135E+00
 p    1 1.00
 0.15268613795000E+00 0.10000000000000E+01
 d    1 1.00
 0.80000000000000E+00 0.10000000000000E+01
 
   16 0
 s    5 1.00
 0.12384016938000E+04 0.55173650481097E-02
 0.18629004992000E+03 0.41088828555946E-01
 0.42251176346000E+02 0.18225382126490E+00
 0.11676557932000E+02 0.46828459437429E+00
 0.35930506482000E+01 0.44575817336002E+00
 s    1 1.00
 0.40245147363000E+00 0.10000000000000E+01
 s    1 1.00
 0.13090182668000E+00 0.10000000000000E+01
 p    3 1.00
 0.94680970621000E+01 0.56888332011037E-01
 0.20103545142000E+01 0.31294059336471E+00
 0.54771004707000E+00 0.76065016509135E+00
 p    1 1.00
 0.15268613795000E+00 0.10000000000000E+01
 d    1 1.00
 0.80000000000000E+00 0.10000000000000E+01
 
   17 0
 s    5 1.00
 0.12384016938000E+04 0.55173650481097E-02
 0.18629004992000E+03 0.41088828555946E-01
 0.42251176346000E+02 0.18225382126490E+00
 0.11676557932000E+02 0.46828459437429E+00
 0.35930506482000E+01 0.44575817336002E+00
 s    1 1.00
 0.40245147363000E+00 0.10000000000000E+01
 s    1 1.00
 0.13090182668000E+00 0.10000000000000E+01
 p    3 1.00
 0.94680970621000E+01 0.56888332011037E-01
 0.20103545142000E+01 0.31294059336471E+00
 0.54771004707000E+00 0.76065016509135E+00
 p    1 1.00
 0.15268613795000E+00 0.10000000000000E+01
 d    1 1.00
 0.80000000000000E+00 0.10000000000000E+01
 
   18 0
 s    5 1.00
 0.12384016938000E+04 0.55173650481097E-02
 0.18629004992000E+03 0.41088828555946E-01
 0.42251176346000E+02 0.18225382126490E+00
 0.11676557932000E+02 0.46828459437429E+00
 0.35930506482000E+01 0.44575817336002E+00
 s    1 1.00
 0.40245147363000E+00 0.10000000000000E+01
 s    1 1.00
 0.13090182668000E+00 0.10000000000000E+01
 p    3 1.00
 0.94680970621000E+01 0.56888332011037E-01
 0.20103545142000E+01 0.31294059336471E+00
 0.54771004707000E+00 0.76065016509135E+00
 p    1 1.00
 0.15268613795000E+00 0.10000000000000E+01
 d    1 1.00
 0.80000000000000E+00 0.10000000000000E+01
 
   19 0
 s    5 1.00
 0.12384016938000E+04 0.55173650481097E-02
 0.18629004992000E+03 0.41088828555946E-01
 0.42251176346000E+02 0.18225382126490E+00
 0.11676557932000E+02 0.46828459437429E+00
 0.35930506482000E+01 0.44575817336002E+00
 s    1 1.00
 0.40245147363000E+00 0.10000000000000E+01
 s    1 1.00
 0.13090182668000E+00 0.10000000000000E+01
 p    3 1.00
 0.94680970621000E+01 0.56888332011037E-01
 0.20103545142000E+01 0.31294059336471E+00
 0.54771004707000E+00 0.76065016509135E+00
 p    1 1.00
 0.15268613795000E+00 0.10000000000000E+01
 d    1 1.00
 0.80000000000000E+00 0.10000000000000E+01
 
   20 0
 s    5 1.00
 0.17128415853000E+04 -.54477995804909E-02
 0.25764812677000E+03 -.40627174632423E-01
 0.58458245853000E+02 -.18111962250584E+00
 0.16198367905000E+02 -.46843975563173E+00
 0.50052600809000E+01 -.44616846289231E+00
 s    1 1.00
 0.58731856571000E+00 0.10000000000000E+01
 s    1 1.00
 0.18764592253000E+00 0.10000000000000E+01
 p    3 1.00
 0.13571470233000E+02 -.58848116969522E-01
 0.29257372874000E+01 -.32024624762471E+00
 0.79927750754000E+00 -.75328226520436E+00
 p    1 1.00
 0.21954348034000E+00 0.10000000000000E+01
 d    1 1.00
 0.10000000000000E+01 0.10000000000000E+01
 
   21 0
 s    5 1.00
 0.12384016938000E+04 0.55173650481097E-02
 0.18629004992000E+03 0.41088828555946E-01
 0.42251176346000E+02 0.18225382126490E+00
 0.11676557932000E+02 0.46828459437429E+00
 0.35930506482000E+01 0.44575817336002E+00
 s    1 1.00
 0.40245147363000E+00 0.10000000000000E+01
 s    1 1.00
 0.13090182668000E+00 0.10000000000000E+01
 p    3 1.00
 0.94680970621000E+01 0.56888332011037E-01
 0.20103545142000E+01 0.31294059336471E+00
 0.54771004707000E+00 0.76065016509135E+00
 p    1 1.00
 0.15268613795000E+00 0.10000000000000E+01
 d    1 1.00
 0.80000000000000E+00 0.10000000000000E+01
 
   22 0
 s    3 1.00
 0.13010701000000E+02 0.33485484812989E-01
 0.19622572000000E+01 0.23472187088125E+00
 0.44453796000000E+00 0.81377028525955E+00
 s    1 1.00
 0.12194962000000E+00 0.10000000000000E+01
 
   23 0
 s    3 1.00
 0.13010701000000E+02 0.33485484812989E-01
 0.19622572000000E+01 0.23472187088125E+00
 0.44453796000000E+00 0.81377028525955E+00
 s    1 1.00
 0.12194962000000E+00 0.10000000000000E+01
 
   24 0
 s    3 1.00
 0.13010701000000E+02 0.33485484812989E-01
 0.19622572000000E+01 0.23472187088125E+00
 0.44453796000000E+00 0.81377028525955E+00
 s    1 1.00
 0.12194962000000E+00 0.10000000000000E+01
 
   25 0
 s    3 1.00
 0.13010701000000E+02 0.33485484812989E-01
 0.19622572000000E+01 0.23472187088125E+00
 0.44453796000000E+00 0.81377028525955E+00
 s    1 1.00
 0.12194962000000E+00 0.10000000000000E+01
 
   26 0
 s    3 1.00
 0.13010701000000E+02 0.33485484812989E-01
 0.19622572000000E+01 0.23472187088125E+00
 0.44453796000000E+00 0.81377028525955E+00
 s    1 1.00
 0.12194962000000E+00 0.10000000000000E+01
 
   27 0
 s    3 1.00
 0.13010701000000E+02 0.33485484812989E-01
 0.19622572000000E+01 0.23472187088125E+00
 0.44453796000000E+00 0.81377028525955E+00
 s    1 1.00
 0.12194962000000E+00 0.10000000000000E+01
 
   28 0
 s    3 1.00
 0.13010701000000E+02 0.33485484812989E-01
 0.19622572000000E+01 0.23472187088125E+00
 0.44453796000000E+00 0.81377028525955E+00
 s    1 1.00
 0.12194962000000E+00 0.10000000000000E+01
 
   29 0
 s    3 1.00
 0.13010701000000E+02 0.33485484812989E-01
 0.19622572000000E+01 0.23472187088125E+00
 0.44453796000000E+00 0.81377028525955E+00
 s    1 1.00
 0.12194962000000E+00 0.10000000000000E+01
 
   30 0
 s    3 1.00
 0.13010701000000E+02 0.33485484812989E-01
 0.19622572000000E+01 0.23472187088125E+00
 0.44453796000000E+00 0.81377028525955E+00
 s    1 1.00
 0.12194962000000E+00 0.10000000000000E+01
 
[MO]
 Sym=     1a'  
 Ene= -.14130422834701E+02
 Spin= Alpha
 Occup= 2.000000
     1 0.55623043631904E-04
     2 -.10319974690557E-02
     3 0.13805740038499E-01
     4 -.13897849475858E-03
     5 0.10675591298775E-03
     6 0.00000000000000E+00
     7 0.22526970441342E-01
     8 0.61345075780622E-02
     9 0.00000000000000E+00
    10 0.17475519282344E-04
    11 0.81639031259938E-05
    12 -.25639422408337E-04
    13 -.83300286703090E-04
    14 0.00000000000000E+00
    15 0.00000000000000E+00
    16 0.14431436877785E-04
    17 0.82623231028533E-04
    18 -.15635661081076E-01
    19 0.15743626163631E-03
    20 0.90001428732114E-05
    21 0.00000000000000E+00
    22 -.78235479700350E-02
    23 -.19898151605065E-01
    24 0.00000000000000E+00
    25 -.15649541138785E-04
    26 -.26611720314585E-04
    27 0.42261261453370E-04
    28 -.67003128042967E-05
    29 0.00000000000000E+00
    30 0.00000000000000E+00
    31 0.14431436877785E-04
    32 0.82623231028533E-04
    33 -.15635661081076E-01
    34 -.86512483184044E-04
    35 0.13184373061729E-03
    36 0.00000000000000E+00
    37 0.21144078763358E-01
    38 0.31736845127561E-02
    39 0.00000000000000E+00
    40 -.28896410123857E-04
    41 -.13364851329513E-04
    42 0.42261261453370E-04
    43 -.21309331857513E-05
    44 0.00000000000000E+00
    45 0.00000000000000E+00
    46 0.55623043631904E-04
    47 -.10319974690557E-02
    48 0.13805740038499E-01
    49 -.22964085272302E-04
    50 -.17373686353452E-03
    51 0.00000000000000E+00
    52 -.16576124622981E-01
    53 0.16441674883472E-01
    54 0.00000000000000E+00
    55 -.51983407862236E-04
    56 0.77622830270574E-04
    57 -.25639422408337E-04
    58 0.36994335273370E-04
    59 0.00000000000000E+00
    60 0.00000000000000E+00
    61 0.14431436877785E-04
    62 0.82623231028533E-04
    63 -.15635661081076E-01
    64 -.70923778452263E-04
    65 -.14084387349050E-03
    66 0.00000000000000E+00
    67 -.13320530793323E-01
    68 0.16724467092309E-01
    69 0.00000000000000E+00
    70 -.18845940917412E-04
    71 -.23415320535958E-04
    72 0.42261261453370E-04
    73 0.88312459900480E-05
    74 0.00000000000000E+00
    75 0.00000000000000E+00
    76 0.55623043631904E-04
    77 -.10319974690557E-02
    78 0.13805740038499E-01
    79 0.16194258003088E-03
    80 0.66980950546776E-04
    81 0.00000000000000E+00
    82 -.59508458183608E-02
    83 -.22576182461534E-01
    84 0.00000000000000E+00
    85 0.72967022192399E-04
    86 -.47327599784061E-04
    87 -.25639422408337E-04
    88 0.46305951429720E-04
    89 0.00000000000000E+00
    90 0.00000000000000E+00
    91 0.48491159763855E-04
    92 -.11469151317195E-02
    93 0.53522003955946E-02
    94 0.18478808432207E-03
    95 0.13019802150149E-03
    96 0.00000000000000E+00
    97 -.14832430028766E-02
    98 -.89650587552383E-02
    99 0.00000000000000E+00
   100 0.79699145656423E-04
   101 -.96285163624162E-05
   102 -.70070629294007E-04
   103 0.72225226884707E-04
   104 0.00000000000000E+00
   105 0.00000000000000E+00
   106 0.32309976110825E-04
   107 -.83434828181952E-04
   108 -.97750872842867E-02
   109 -.19754818908775E-03
   110 -.14571904061362E-03
   111 0.00000000000000E+00
   112 0.23423335551795E-02
   113 -.37568685352749E-02
   114 0.00000000000000E+00
   115 -.17325178000879E-03
   116 0.64247340337030E-04
   117 0.10900443967176E-03
   118 -.46627848140560E-04
   119 0.00000000000000E+00
   120 0.00000000000000E+00
   121 0.57103878359110E+00
   122 -.25700935370390E-01
   123 0.33155880999093E-01
   124 -.58971612967161E-03
   125 0.23303736872947E-02
   126 0.00000000000000E+00
   127 -.17274831874380E-02
   128 0.85655965790207E-02
   129 0.00000000000000E+00
   130 0.10824176002232E-03
   131 -.22365461683658E-03
   132 0.11541285681426E-03
   133 0.26183796745169E-03
   134 0.00000000000000E+00
   135 0.00000000000000E+00
   136 -.18081535165711E-03
   137 -.42673951281922E-03
   138 -.11634227826023E-01
   139 0.59251194223007E-03
   140 -.13447186228082E-02
   141 0.00000000000000E+00
   142 -.81291858023288E-02
   143 0.16059149669315E-01
   144 0.00000000000000E+00
   145 -.33563256368895E-03
   146 0.63196164210531E-03
   147 -.29632907841636E-03
   148 -.40008901334123E-03
   149 0.00000000000000E+00
   150 0.00000000000000E+00
   151 -.27894341102676E-04
   152 0.79414868876807E-03
   153 -.20351554961172E-02
   154 0.25929917294857E-04
   155 0.11513149207286E-03
   156 0.00000000000000E+00
   157 0.35545452823840E-03
   158 -.81298979698677E-03
   159 0.00000000000000E+00
   160 0.46488885572186E-06
   161 -.71643117104839E-04
   162 0.71178228249117E-04
   163 0.48884542495893E-04
   164 0.00000000000000E+00
   165 0.00000000000000E+00
   166 0.48491159763855E-04
   167 -.11469151317195E-02
   168 0.53522003955946E-02
   169 0.20360751981727E-04
   170 -.22513018609031E-03
   171 0.00000000000000E+00
   172 -.70223471270182E-02
   173 0.57670554980958E-02
   174 0.00000000000000E+00
   175 -.41465521021236E-04
   176 0.11153615031524E-03
   177 -.70070629294007E-04
   178 0.85512175670663E-05
   179 0.00000000000000E+00
   180 0.00000000000000E+00
   181 0.32309976110825E-04
   182 -.83434828181952E-04
   183 -.97750872842867E-02
   184 -.27422296442622E-04
   185 0.24394127052841E-03
   186 0.00000000000000E+00
   187 -.44247103678163E-02
   188 -.15008609528475E-03
   189 0.00000000000000E+00
   190 0.39843446355996E-04
   191 -.14884788602775E-03
   192 0.10900443967176E-03
   193 -.95435636102628E-04
   194 0.00000000000000E+00
   195 0.00000000000000E+00
   196 0.57103878359110E+00
   197 -.25700935370390E-01
   198 0.33155880999093E-01
   199 0.23130208783438E-02
   200 -.65447769433029E-03
   201 0.00000000000000E+00
   202 0.82817658297200E-02
   203 -.27867539645785E-02
   204 0.00000000000000E+00
   205 -.33705899821062E-03
   206 0.22164614139636E-03
   207 0.11541285681426E-03
   208 0.35029204703606E-04
   209 0.00000000000000E+00
   210 0.00000000000000E+00
   211 -.18081535165711E-03
   212 -.42673951281922E-03
   213 -.11634227826023E-01
   214 -.14608164594089E-02
   215 0.15922891738719E-03
   216 0.00000000000000E+00
   217 0.17972224477967E-01
   218 -.98949341775686E-03
   219 0.00000000000000E+00
   220 0.69012985066267E-03
   221 -.39380077224631E-03
   222 -.29632907841636E-03
   223 -.28375259622651E-03
   224 0.00000000000000E+00
   225 0.00000000000000E+00
   226 -.27894341102676E-04
   227 0.79414868876807E-03
   228 -.20351554961172E-02
   229 0.86741838263271E-04
   230 -.80021713131804E-04
   231 0.00000000000000E+00
   232 -.88179708132730E-03
   233 0.98662247148717E-04
   234 0.00000000000000E+00
   235 -.90279522486618E-04
   236 0.19101294237502E-04
   237 0.71178228249117E-04
   238 0.11611731732334E-04
   239 0.00000000000000E+00
   240 0.00000000000000E+00
   241 0.48491159763855E-04
   242 -.11469151317195E-02
   243 0.53522003955946E-02
   244 -.20514883630379E-03
   245 0.94932164588827E-04
   246 0.00000000000000E+00
   247 0.85055901298948E-02
   248 0.31980032571425E-02
   249 0.00000000000000E+00
   250 0.66872319305824E-04
   251 0.31983099881831E-05
   252 -.70070629294007E-04
   253 -.80776444451773E-04
   254 0.00000000000000E+00
   255 0.00000000000000E+00
   256 -.27894341102676E-04
   257 0.79414868876807E-03
   258 -.20351554961172E-02
   259 -.11267175555813E-03
   260 -.35109778941052E-04
   261 0.00000000000000E+00
   262 0.52634255308890E-03
   263 0.71432754983806E-03
   264 0.00000000000000E+00
   265 -.16952708742778E-04
   266 -.54225519506338E-04
   267 0.71178228249117E-04
   268 -.60496274228227E-04
   269 0.00000000000000E+00
   270 0.00000000000000E+00
   271 -.18081535165711E-03
   272 -.42673951281922E-03
   273 -.11634227826023E-01
   274 0.86830451717886E-03
   275 0.11854897054210E-02
   276 0.00000000000000E+00
   277 -.98430386756386E-02
   278 -.15069656251558E-01
   279 0.00000000000000E+00
   280 0.89996330650818E-04
   281 0.20633274776554E-03
   282 -.29632907841636E-03
   283 0.68384160956774E-03
   284 0.00000000000000E+00
   285 0.00000000000000E+00
   286 0.57103878359110E+00
   287 -.25700935370390E-01
   288 0.33155880999093E-01
   289 -.17233047486722E-02
   290 -.16758959929644E-02
   291 0.00000000000000E+00
   292 -.65542826422820E-02
   293 -.57788426144422E-02
   294 0.00000000000000E+00
   295 0.55697952966910E-04
   296 -.17111080978117E-03
   297 0.11541285681426E-03
   298 -.29686717215529E-03
   299 0.00000000000000E+00
   300 0.00000000000000E+00
   301 0.32309976110825E-04
   302 -.83434828181952E-04
   303 -.97750872842867E-02
   304 0.22497048553037E-03
   305 -.98222229914788E-04
   306 0.00000000000000E+00
   307 0.20823768126367E-02
   308 0.39069546305597E-02
   309 0.00000000000000E+00
   310 -.30098325854844E-04
   311 -.78906113816913E-04
   312 0.10900443967176E-03
   313 0.14206348424319E-03
   314 0.00000000000000E+00
   315 0.00000000000000E+00
   316 -.19954879502379E-03
   317 -.30887298027769E-03
   318 0.22993572370285E-04
   319 0.52132930723508E-03
   320 0.22993572370285E-04
   321 0.52132930723508E-03
   322 -.19954879502379E-03
   323 -.30887298027769E-03
   324 -.19954879502379E-03
   325 -.30887298027769E-03
   326 0.22993572370285E-04
   327 0.52132930723508E-03
   328 0.22993572370285E-04
   329 0.52132930723508E-03
   330 0.22993572370285E-04
   331 0.52132930723508E-03
   332 0.22993572370285E-04
   333 0.52132930723508E-03
 Sym=     1e'  (2)
 Ene= -.14130413033323E+02
 Spin= Alpha
 Occup= 2.000000
     1 -.41028897106475E-04
     2 0.81360749579826E-03
     3 -.36343559299282E-02
     4 0.97788216051061E-04
     5 -.90061446887033E-04
     6 0.00000000000000E+00
     7 -.60497342820677E-02
     8 0.65829606897137E-03
     9 0.00000000000000E+00
    10 -.36168887418439E-04
    11 0.73874604795601E-05
    12 0.28781426938879E-04
    13 0.60484214135512E-04
    14 0.00000000000000E+00
    15 0.00000000000000E+00
    16 0.48291304512098E-05
    17 -.25403642398944E-03
    18 0.72057948046612E-02
    19 -.13710394252813E-03
    20 0.29780302160875E-04
    21 0.00000000000000E+00
    22 0.20490671343190E-02
    23 0.65893197815390E-02
    24 0.00000000000000E+00
    25 0.50941988556465E-05
    26 0.17029379793521E-04
    27 -.22123578649167E-04
    28 0.49214203436538E-05
    29 0.00000000000000E+00
    30 0.00000000000000E+00
    31 -.66856667554136E-04
    32 0.11223772045451E-02
    33 0.10239000645194E-01
    34 0.96203252114581E-04
    35 0.25537662314396E-03
    36 0.00000000000000E+00
    37 0.15964157087796E-03
    38 -.55690916478892E-02
    39 0.00000000000000E+00
    40 0.80737293850355E-04
    41 -.10241122750775E-03
    42 0.21673933657390E-04
    43 0.27491781657061E-06
    44 0.00000000000000E+00
    45 0.00000000000000E+00
    46 0.50530826380771E-04
    47 -.11119770384680E-02
    48 0.12761936162609E-01
    49 -.87063058981020E-04
    50 -.27669928512941E-03
    51 0.00000000000000E+00
    52 -.75540301735470E-02
    53 0.10190785943460E-01
    54 0.00000000000000E+00
    55 -.11575687557515E-03
    56 0.18570635851047E-03
    57 -.69949482935320E-04
    58 0.47755932759571E-04
    59 0.00000000000000E+00
    60 0.00000000000000E+00
    61 0.62027537102926E-04
    62 -.86834078055561E-03
    63 -.17444795449855E-01
    64 0.17492179976488E-03
    65 -.59471494793857E-04
    66 0.00000000000000E+00
    67 -.94251388149494E-02
    68 0.21464046033245E-02
    69 0.00000000000000E+00
    70 0.46063389504481E-04
    71 -.46513034496257E-04
    72 0.44964499177673E-06
    73 0.10014002022810E-03
    74 0.00000000000000E+00
    75 0.00000000000000E+00
    76 -.95019292742951E-05
    77 0.29836954266971E-03
    78 -.91275802326811E-02
    79 -.15627053069029E-03
    80 -.23294465908495E-04
    81 0.00000000000000E+00
    82 0.14534961648175E-02
    83 0.67272994630453E-02
    84 0.00000000000000E+00
    85 -.97292712462167E-04
    86 0.56124656465726E-04
    87 0.41168055996441E-04
    88 -.74833369646264E-04
    89 0.00000000000000E+00
    90 0.00000000000000E+00
    91 -.13373762619332E-04
    92 0.28531962350539E-03
    93 -.58792518693880E-02
    94 0.11156210468598E-04
    95 0.89839997881371E-04
    96 0.00000000000000E+00
    97 0.42886724445870E-02
    98 -.11874358923856E-02
    99 0.00000000000000E+00
   100 -.74647947351604E-04
   101 0.42561937425617E-04
   102 0.32086009925987E-04
   103 0.22848395161943E-04
   104 0.00000000000000E+00
   105 0.00000000000000E+00
   106 0.78187360199003E-05
   107 -.26125075339765E-03
   108 0.15959101136361E-02
   109 -.45591918408616E-04
   110 -.16677941913160E-04
   111 0.00000000000000E+00
   112 -.10736803449705E-02
   113 0.48795536194889E-03
   114 0.00000000000000E+00
   115 0.65907693409816E-04
   116 -.31456110649497E-04
   117 -.34451582760319E-04
   118 -.10315980448190E-04
   119 0.00000000000000E+00
   120 0.00000000000000E+00
   121 -.20422884046203E+00
   122 0.91054986689790E-02
   123 -.11138650995801E-01
   124 0.20748601189633E-03
   125 -.81642320981203E-03
   126 0.00000000000000E+00