
 statpt (c-17-17.gp.local) : TURBOMOLE V7.2 ( 21454 ) 2 Oct 2017 at 16:43:05
 Copyright (C) 2017 TURBOMOLE GmbH, Karlsruhe


    2018-03-20 22:58:01.710 



                           this is S T A T P T   


                     hessian and coordinate update for
                          stationary point search 

                     by barbara unterreiner, marek sierka,
                           and reinhart ahlrichs

                          quantum chemistry group
                          universitaet  karlsruhe
                                  germany




              +--------------------------------------------------+
              | Atomic coordinate, charge and isotop information |
              +--------------------------------------------------+

                    atomic coordinates            atom    charge  isotop
         -0.89289958   -2.34420053    0.00000000    c      6.000     0
         -2.48491429   -0.43126475    0.00000000    c      6.000     0
          1.61594338   -1.93636653    0.00000000    c      6.000     0
          2.47658700    0.39882655    0.00000000    c      6.000     0
          0.86897091    2.36763128    0.00000000    c      6.000     0
         -1.58368742    1.94537398    0.00000000    c      6.000     0
          3.37140701   -3.68999042    0.00000000    c      6.000     0
          2.35662693   -6.23972826    0.00000000    c      6.000     0
         -0.31047837   -6.62413720    0.00000000    n      7.000     0
         -1.94756012   -4.56098337    0.00000000    c      6.000     0
         -4.89239566   -4.07523432    0.00000000    c      6.000     0
         -4.88132895   -1.07472890    0.00000000    c      6.000     0
         -6.58207666    1.07896534    0.00000000    c      6.000     0
         -5.58143191    3.58095075    0.00000000    n      7.000     0
         -2.97614740    3.96712823    0.00000000    c      6.000     0
         -1.08305862    6.27455609    0.00000000    c      6.000     0
          1.50992194    4.76471932    0.00000000    c      6.000     0
          5.97545428   -2.19932177    0.00000000    c      6.000     0
          4.92370753    0.59385514    0.00000000    c      6.000     0
          5.89191028    3.04318644    0.00000000    n      7.000     0
          4.22544972    5.16076292    0.00000000    c      6.000     0
          4.98270166    7.05844889    0.00000000    h      1.000     0
          7.09113144   -2.59925943    1.74189179    h      1.000     0
          7.09113144   -2.59925943   -1.74189179    h      1.000     0
          3.62144522   -7.84437066    0.00000000    h      1.000     0
         -8.60414688    0.78592177    0.00000000    h      1.000     0
         -5.79659042   -4.84147025   -1.74189179    h      1.000     0
         -5.79659042   -4.84147025    1.74189179    h      1.000     0
         -1.29454102    7.44072968   -1.74189179    h      1.000     0
         -1.29454102    7.44072968    1.74189179    h      1.000     0
 
       center of nuclear mass  :    0.00000000    0.00000000    0.00000000
       center of nuclear charge:    0.00000000    0.00000000    0.00000000
 
        ***************  Stationary point options ******************
        ************************************************************
           Maximum allowed trust radius:           3.000000E-01
           Minimum allowed trust radius:           1.000000E-03
           Initial trust radius:                   1.500000E-01
           GDIIS used if gradient norm <           1.000000E-02
           Number of previous steps for GDIIS:       5
           Hessian update method:                  Powell
           Initial index of transition vector:       1
                        *** Convergence criteria ***                
           Threshold for energy change:            1.000000E-06
           Threshold for max displacement element: 1.000000E-03
           Threshold for max gradient element :    1.000000E-03
           Threshold for RMS of displacement:      5.000000E-04
           Threshold for RMS of gradient:          5.000000E-04
        ************************************************************
 
     Number of symmetry restricted degrees of freedom:    19
     Constituted by:     0 translational degrees of freedom
                         1 rotational degrees of freedom
                      18 internal degrees of freedom


 keyword $optinfo  missing in file <control>

  *************************************************************************
   ATOM                      CARTESIAN COORDINATES
    1 c      -0.89289957797848     -2.34420053300440      0.00000000000000
    2 c      -2.48491429292595     -0.43126475494183      0.00000000000000
    3 c       1.61594337999947     -1.93636652643000      0.00000000000000
    4 c       2.47658700213607      0.39882654894443      0.00000000000000
    5 c       0.86897091292648      2.36763128137183      0.00000000000000
    6 c      -1.58368742415759      1.94537398405997      0.00000000000000
    7 c       3.37140700522104     -3.68999042341606      0.00000000000000
    8 c       2.35662693348884     -6.23972826317774      0.00000000000000
    9 n      -0.31047836986444     -6.62413719861854      0.00000000000000
   10 c      -1.94756012444821     -4.56098337073221      0.00000000000000
   11 c      -4.89239566112710     -4.07523431973108      0.00000000000000
   12 c      -4.88132894901013     -1.07472890131021      0.00000000000000
   13 c      -6.58207665536810      1.07896533994492      0.00000000000000
   14 n      -5.58143190722492      3.58095075493746      0.00000000000000
   15 c      -2.97614740306836      3.96712822853584      0.00000000000000
   16 c      -1.08305861669775      6.27455608776638      0.00000000000000
   17 c       1.50992194378909      4.76471932472627      0.00000000000000
   18 c       5.97545427782486     -2.19932176803530      0.00000000000000
   19 c       4.92370752751657      0.59385514219637      0.00000000000000
   20 n       5.89191027708936      3.04318644368109      0.00000000000000
   21 c       4.22544972187926      5.16076292323283      0.00000000000000
   22 h       4.98270165781090      7.05844889418939      0.00000000000000
   23 h       7.09113143759308     -2.59925943385768      1.74189179133292
   24 h       7.09113143759308     -2.59925943385768     -1.74189179133292
   25 h       3.62144522477674     -7.84437066223778      0.00000000000000
   26 h      -8.60414688258764      0.78592176804839      0.00000000000000
   27 h      -5.79659041954365     -4.84147024960123     -1.74189179133292
   28 h      -5.79659041954365     -4.84147024960123      1.74189179133292
   29 h      -1.29454101804943      7.44072968345892     -1.74189179133292
   30 h      -1.29454101804943      7.44072968345892      1.74189179133292
  *************************************************************************
   ATOM                      CARTESIAN GRADIENTS  
    1 c      -0.05727964449576      0.00437058247975      0.00000000000000
    2 c       0.00750530202965     -0.05659555399029      0.00000000000000
    3 c       0.04526053648202      0.03479755921590      0.00000000000000
    4 c       0.02485478679109     -0.05179091849294      0.00000000000000
    5 c      -0.05276583851168      0.02179799477439      0.00000000000000
    6 c       0.03242485770468      0.04742033601320      0.00000000000000
    7 c      -0.05962770063783      0.07814091314552      0.00000000000000
    8 c       0.04250609146469     -0.04249744092055      0.00000000000000
    9 n      -0.01481930125403      0.00176743584340      0.00000000000000
   10 c       0.00581375299133      0.11007045757669      0.00000000000000
   11 c      -0.00336422980925     -0.00292581817726      0.00000000000000
   12 c       0.09748586617785      0.01256864694885      0.00000000000000
   13 c      -0.05805690916537     -0.01556263456373      0.00000000000000
   14 n       0.00894029496695      0.01195017343063      0.00000000000000
   15 c       0.09241693597193     -0.06007008657017      0.00000000000000
   16 c      -0.00085171796373      0.00437641756761      0.00000000000000
   17 c      -0.03785816554002     -0.09070956009438      0.00000000000000
   18 c       0.00421594777299     -0.00145059939035      0.00000000000000
   19 c      -0.09823068896326     -0.05000037100652      0.00000000000000
   20 n       0.00587900628707     -0.01371760927402      0.00000000000000
   21 c       0.01555081770068      0.05806007548428      0.00000000000000
   22 h      -0.01445628290468     -0.00558981522540      0.00000000000000
   23 h      -0.00115204963914      0.00022389055360      0.00773957134412
   24 h      -0.00115204963914      0.00022389055360     -0.00773957134412
   25 h       0.00238721946468      0.01531441585245      0.00000000000000
   26 h       0.01206906344000     -0.00972460062705      0.00000000000000
   27 h       0.00076991972666      0.00088575897711     -0.00773957134412
   28 h       0.00076991972666      0.00088575897711      0.00773957134412
   29 h       0.00038212991248     -0.00110964953072     -0.00773957134412
   30 h       0.00038212991248     -0.00110964953072      0.00773957134412
  *************************************************************************

  norm of actual CARTESIAN gradient:  3.12674E-01
  norm of actual INTERNAL  gradient:  3.38012E-01

  ENERGY =    -854.9576821998 a.u.; # of cycle =    1


 keyword $hessapprox missing in file <control>


  Found initial Hessian matrix in $hessian section
  Number of zero Hessian eigenvalues:   0

   5 first eigenvalues: 
  0.10528149  0.11568354  0.12084147  0.14990358  0.16449298

  Eigenvalue of transition vector:  0.10528149

                  #######################################
                   WARNING: HESSIAN HAS WRONG INERTIA!!! 
                  TRANSITION MODE HAS POSITIVE EIGENVALUE
                                0.11E+00
                  #######################################

  Results of the TRO shift search
  Final shift: -1.37912E+00 residual -2.42861E-17
  Final step radius: 1.50000E-01

  Transforming internal coordinate displacements to Cartesian space
      Iteration   1 residual norm     1.500000E-01
      Iteration   2 residual norm     2.171823E-03
      Iteration   3 residual norm     1.724430E-07
      Iteration   4 residual norm     4.521382E-15
      Transformation converged
      Residual norm:    4.521382E-15 after    4 iterations

      ****************************************************************** 
                          CONVERGENCE INFORMATION

                               Converged?     Value      Criterion
             Energy change         no     854.9576822   0.0000010
             RMS of displacement   no       0.0353553   0.0005000
             RMS of gradient       no       0.0796701   0.0005000
             MAX displacement      no       0.0841246   0.0010000
             MAX gradient          no       0.1991547   0.0010000
      ****************************************************************** 


    ------------------------------------------------------------------------
         total  cpu-time :   0.06 seconds
         total wall-time :   0.08 seconds
    ------------------------------------------------------------------------

   ****  statpt : all done  ****


    2018-03-20 22:58:01.776 


 statpt (c-17-17.gp.local) : TURBOMOLE V7.2 ( 21454 ) 2 Oct 2017 at 16:43:05
 Copyright (C) 2017 TURBOMOLE GmbH, Karlsruhe


    2018-03-20 22:58:11.196 



                           this is S T A T P T   


                     hessian and coordinate update for
                          stationary point search 

                     by barbara unterreiner, marek sierka,
                           and reinhart ahlrichs

                          quantum chemistry group
                          universitaet  karlsruhe
                                  germany




              +--------------------------------------------------+
              | Atomic coordinate, charge and isotop information |
              +--------------------------------------------------+

                    atomic coordinates            atom    charge  isotop
         -0.89154098   -2.38259892    0.00000000    c      6.000     0
         -2.51850572   -0.43556736    0.00000000    c      6.000     0
          1.63646526   -1.96330625    0.00000000    c      6.000     0
          2.50916168    0.41920232    0.00000000    c      6.000     0
          0.88204046    2.39887362    0.00000000    c      6.000     0
         -1.61762070    1.96339660    0.00000000    c      6.000     0
          3.42508132   -3.73612856    0.00000000    c      6.000     0
          2.34605711   -6.25377826    0.00000000    c      6.000     0
         -0.29693515   -6.65986766    0.00000000    n      7.000     0
         -1.96587289   -4.64055370    0.00000000    c      6.000     0
         -4.90942586   -4.10134417    0.00000000    c      6.000     0
         -4.94812290   -1.09814315    0.00000000    c      6.000     0
         -6.58895940    1.09514407    0.00000000    c      6.000     0
         -5.61914700    3.58708721    0.00000000    n      7.000     0
         -3.03590095    4.02277272    0.00000000    c      6.000     0
         -1.09715531    6.30235960    0.00000000    c      6.000     0
          1.52304158    4.83427171    0.00000000    c      6.000     0
          6.00658117   -2.20101543    0.00000000    c      6.000     0
          5.00177384    0.61778098    0.00000000    c      6.000     0
          5.91608215    3.07278045    0.00000000    n      7.000     0
          4.24290229    5.15863418    0.00000000    c      6.000     0
          5.03200341    7.05012000    0.00000000    h      1.000     0
          7.12474660   -2.59875946    1.73636621    h      1.000     0
          7.12474660   -2.59875946   -1.73636621    h      1.000     0
          3.58958131   -7.88290278    0.00000000    h      1.000     0
         -8.62158472    0.83278278    0.00000000    h      1.000     0
         -5.81296501   -4.87083182   -1.73636621    h      1.000     0
         -5.81296501   -4.87083182    1.73636621    h      1.000     0
         -1.31178159    7.46959128   -1.73636621    h      1.000     0
         -1.31178159    7.46959128    1.73636621    h      1.000     0
 
       center of nuclear mass  :    0.00000000    0.00000000    0.00000000
       center of nuclear charge:    0.00000000    0.00000000    0.00000000
 
        ***************  Stationary point options ******************
        ************************************************************
           Maximum allowed trust radius:           3.000000E-01
           Minimum allowed trust radius:           1.000000E-03
           Initial trust radius:                   1.500000E-01
           GDIIS used if gradient norm <           1.000000E-02
           Number of previous steps for GDIIS:       5
           Hessian update method:                  Powell
           Initial index of transition vector:       1
                        *** Convergence criteria ***                
           Threshold for energy change:            1.000000E-06
           Threshold for max displacement element: 1.000000E-03
           Threshold for max gradient element :    1.000000E-03
           Threshold for RMS of displacement:      5.000000E-04
           Threshold for RMS of gradient:          5.000000E-04
        ************************************************************
 
     Number of symmetry restricted degrees of freedom:    19
     Constituted by:     0 translational degrees of freedom
                         1 rotational degrees of freedom
                      18 internal degrees of freedom

  *************************************************************************
   ATOM                      CARTESIAN COORDINATES
    1 c      -0.89154097903526     -2.38259891743253      0.00000000000000
    2 c      -2.51850572129369     -0.43556736274207      0.00000000000000
    3 c       1.63646526184087     -1.96330625284575      0.00000000000000
    4 c       2.50916167904350      0.41920232235688      0.00000000000000
    5 c       0.88204045945283      2.39887361558782      0.00000000000000
    6 c      -1.61762070000824      1.96339659507565      0.00000000000000
    7 c       3.42508131753622     -3.73612855776375      0.00000000000000
    8 c       2.34605710895705     -6.25377825829275      0.00000000000000
    9 n      -0.29693515033194     -6.65986765906219      0.00000000000000
   10 c      -1.96587289247782     -4.64055370098266      0.00000000000000
   11 c      -4.90942585980366     -4.10134417031815      0.00000000000000
   12 c      -4.94812290159604     -1.09814315213197      0.00000000000000
   13 c      -6.58895939579485      1.09514407406050      0.00000000000000
   14 n      -5.61914700342429      3.58708721299511      0.00000000000000
   15 c      -3.03590094643796      4.02277271598832      0.00000000000000
   16 c      -1.09715531125689      6.30235959774531      0.00000000000000
   17 c       1.52304158405982      4.83427170989572      0.00000000000000
   18 c       6.00658117106056     -2.20101542742716      0.00000000000000
   19 c       5.00177383891578      0.61778098499434      0.00000000000000
   20 n       5.91608215375623      3.07278044606709      0.00000000000000
   21 c       4.24290228683780      5.15863418423226      0.00000000000000
   22 h       5.03200340689687      7.05011999775425      0.00000000000000
   23 h       7.12474660039238     -2.59875945653894      1.73636621239089
   24 h       7.12474660039238     -2.59875945653894     -1.73636621239089
   25 h       3.58958131433543     -7.88290278117966      0.00000000000000
   26 h      -8.62158472123230      0.83278278342542      0.00000000000000
   27 h      -5.81296500788396     -4.87083182319714     -1.73636621239089
   28 h      -5.81296500788396     -4.87083182319714      1.73636621239089
   29 h      -1.31178159250842      7.46959127973610     -1.73636621239089
   30 h      -1.31178159250842      7.46959127973610      1.73636621239089
  *************************************************************************
   ATOM                      CARTESIAN GRADIENTS  
    1 c      -0.03755529191978      0.00073263272530      0.00000000000000
    2 c       0.00114517194605     -0.03821296944610      0.00000000000000
    3 c       0.03252081632133      0.02009823272003      0.00000000000000
    4 c       0.01814316740813     -0.03289015321172      0.00000000000000
    5 c      -0.03366598826739      0.01811473672607      0.00000000000000
    6 c       0.01941212451165      0.03215752048642      0.00000000000000
    7 c      -0.03515048186988      0.05094151174148      0.00000000000000
    8 c       0.02893987630761     -0.03172002250720      0.00000000000000
    9 n      -0.00828676940926      0.00425729581478      0.00000000000000
   10 c      -0.00760233313253      0.06768132078795      0.00000000000000
   11 c       0.00057591368194      0.00111343767896      0.00000000000000
   12 c       0.06169188421024      0.00497045438384      0.00000000000000
   13 c      -0.04194028345366     -0.00920265681117      0.00000000000000
   14 n       0.00783031103165      0.00504790491633      0.00000000000000
   15 c       0.06241490973032     -0.02725684677317      0.00000000000000
   16 c       0.00067630847454     -0.00105547471843      0.00000000000000
   17 c      -0.02654140234037     -0.05591196612532      0.00000000000000
   18 c      -0.00125222215648     -0.00005796296053      0.00000000000000
   19 c      -0.05481257659778     -0.04042447401478      0.00000000000000
   20 n       0.00045645837760     -0.00930520073111      0.00000000000000
   21 c       0.01300040714604      0.04092267931837      0.00000000000000
   22 h      -0.01298979389435     -0.00409488183502      0.00000000000000
   23 h      -0.00202102139557      0.00075369933167      0.00678025214328
   24 h      -0.00202102139557      0.00075369933167     -0.00678025214328
   25 h       0.00294862525256      0.01329693241994      0.00000000000000
   26 h       0.01004116864180     -0.00920205058493      0.00000000000000
   27 h       0.00166323346583      0.00137340620432     -0.00678025214328
   28 h       0.00166323346583      0.00137340620432      0.00678025214328
   29 h       0.00035778792974     -0.00212710553599     -0.00678025214328
   30 h       0.00035778792974     -0.00212710553599      0.00678025214328
  *************************************************************************

  norm of actual CARTESIAN gradient:  2.01696E-01
  norm of actual INTERNAL  gradient:  2.10372E-01

  ENERGY =    -854.9985174863 a.u.; # of cycle =    2

  Approximate Hessian read from $hessapprox data section

  Hessian updated according to Powell formula
  Number of zero Hessian eigenvalues:   0

   5 first eigenvalues: 
  0.10485861  0.11465754  0.12082747  0.14998690  0.16388816

  Eigenvalue of transition vector:  0.10485861

                  #######################################
                   WARNING: HESSIAN HAS WRONG INERTIA!!! 
                  TRANSITION MODE HAS POSITIVE EIGENVALUE
                                0.10E+00
                  #######################################

  Largest and next-largest overlaps:   0.99734424  0.06839530

  Old transition vector    1 has overlap 0.99734424 with the new    1

        ***************  Trust radius update info  *****************
                Actual energy change:       -4.08353E-02
                Predicted energy change:    -4.04448E-02
                Actual step radius:          1.50000E-01
                Actual trust radius:         0.150000
                Energy change ratio:         1.009655
                New trust radius:            0.300000
        ************************************************************


  Results of the TRO shift search
  Final shift: -1.73883E-01 residual -4.71845E-16
  Final step radius: 3.00000E-01

  Transforming internal coordinate displacements to Cartesian space
      Iteration   1 residual norm     3.000000E-01
      Iteration   2 residual norm     5.781759E-03
      Iteration   3 residual norm     8.544800E-07
      Iteration   4 residual norm     7.097152E-14
      Transformation converged
      Residual norm:    7.097152E-14 after    4 iterations

      ****************************************************************** 
                          CONVERGENCE INFORMATION

                               Converged?     Value      Criterion
             Energy change         no       0.0408353   0.0000010
             RMS of displacement   no       0.0707107   0.0005000
             RMS of gradient       no       0.0495853   0.0005000
             MAX displacement      no       0.1236607   0.0010000
             MAX gradient          no       0.1199624   0.0010000
      ****************************************************************** 


    ------------------------------------------------------------------------
         total  cpu-time :   0.04 seconds
         total wall-time :   0.05 seconds
    ------------------------------------------------------------------------

   ****  statpt : all done  ****


    2018-03-20 22:58:11.233 


 statpt (c-17-17.gp.local) : TURBOMOLE V7.2 ( 21454 ) 2 Oct 2017 at 16:43:05
 Copyright (C) 2017 TURBOMOLE GmbH, Karlsruhe


    2018-03-20 22:58:20.679 



                           this is S T A T P T   


                     hessian and coordinate update for
                          stationary point search 

                     by barbara unterreiner, marek sierka,
                           and reinhart ahlrichs

                          quantum chemistry group
                          universitaet  karlsruhe
                                  germany




              +--------------------------------------------------+
              | Atomic coordinate, charge and isotop information |
              +--------------------------------------------------+

                    atomic coordinates            atom    charge  isotop
         -0.87333009   -2.43319871    0.00000000    c      6.000     0
         -2.55600429   -0.44836038    0.00000000    c      6.000     0
          1.66629362   -1.98938446    0.00000000    c      6.000     0
          2.54387694    0.46027331    0.00000000    c      6.000     0
          0.88971067    2.43774483    0.00000000    c      6.000     0
         -1.67054685    1.97292540    0.00000000    c      6.000     0
          3.49527910   -3.80295590    0.00000000    c      6.000     0
          2.32360811   -6.27116891    0.00000000    c      6.000     0
         -0.27804524   -6.71967750    0.00000000    n      7.000     0
         -1.95078019   -4.75653085    0.00000000    c      6.000     0
         -4.95427330   -4.15098624    0.00000000    c      6.000     0
         -5.04109597   -1.12552254    0.00000000    c      6.000     0
         -6.59279564    1.12328081    0.00000000    c      6.000     0
         -5.68038880    3.60063299    0.00000000    n      7.000     0
         -3.14388646    4.06769063    0.00000000    c      6.000     0
         -1.11772288    6.36601965    0.00000000    c      6.000     0
          1.54581687    4.92847844    0.00000000    c      6.000     0
          6.07199618   -2.21503341    0.00000000    c      6.000     0
          5.09466665    0.68884023    0.00000000    c      6.000     0
          5.95843404    3.11904451    0.00000000    n      7.000     0
          4.26918753    5.14788810    0.00000000    c      6.000     0
          5.14913855    7.01770006    0.00000000    h      1.000     0
          7.15265859   -2.57165971    1.75357134    h      1.000     0
          7.15265859   -2.57165971   -1.75357134    h      1.000     0
          3.50293725   -7.96813482    0.00000000    h      1.000     0
         -8.65207581    0.95043476    0.00000000    h      1.000     0
         -5.80345193   -4.90855419   -1.75357134    h      1.000     0
         -5.80345193   -4.90855419    1.75357134    h      1.000     0
         -1.34920666    7.48021390   -1.75357134    h      1.000     0
         -1.34920666    7.48021390    1.75357134    h      1.000     0
 
       center of nuclear mass  :    0.00000000    0.00000000    0.00000000
       center of nuclear charge:   -0.00000000    0.00000000    0.00000000
 
        ***************  Stationary point options ******************
        ************************************************************
           Maximum allowed trust radius:           3.000000E-01
           Minimum allowed trust radius:           1.000000E-03
           Initial trust radius:                   1.500000E-01
           GDIIS used if gradient norm <           1.000000E-02
           Number of previous steps for GDIIS:       5
           Hessian update method:                  Powell
           Initial index of transition vector:       1
                        *** Convergence criteria ***                
           Threshold for energy change:            1.000000E-06
           Threshold for max displacement element: 1.000000E-03
           Threshold for max gradient element :    1.000000E-03
           Threshold for RMS of displacement:      5.000000E-04
           Threshold for RMS of gradient:          5.000000E-04
        ************************************************************
 
     Number of symmetry restricted degrees of freedom:    19
     Constituted by:     0 translational degrees of freedom
                         1 rotational degrees of freedom
                      18 internal degrees of freedom

  *************************************************************************
   ATOM                      CARTESIAN COORDINATES
    1 c      -0.87333009112818     -2.43319870605158      0.00000000000000
    2 c      -2.55600428803377     -0.44836037669576      0.00000000000000
    3 c       1.66629362028577     -1.98938445727132      0.00000000000000
    4 c       2.54387693746017      0.46027330821941      0.00000000000000
    5 c       0.88971066774800      2.43774483396708      0.00000000000000
    6 c      -1.67054684633200      1.97292539783217      0.00000000000000
    7 c       3.49527909720525     -3.80295590413789      0.00000000000000
    8 c       2.32360810508096     -6.27116890859895      0.00000000000000
    9 n      -0.27804524034176     -6.71967750188001      0.00000000000000
   10 c      -1.95078018884686     -4.75653085219512      0.00000000000000
   11 c      -4.95427329845401     -4.15098623846049      0.00000000000000
   12 c      -5.04109597105806     -1.12552253942754      0.00000000000000
   13 c      -6.59279563881031      1.12328080685995      0.00000000000000
   14 n      -5.68038880169597      3.60063299247733      0.00000000000000
   15 c      -3.14388645746198      4.06769062683835      0.00000000000000
   16 c      -1.11772288403938      6.36601965298235      0.00000000000000
   17 c       1.54581687385281      4.92847844356543      0.00000000000000
   18 c       6.07199618249340     -2.21503341452185      0.00000000000000
   19 c       5.09466664630884      0.68884022535677      0.00000000000000
   20 n       5.95843404203773      3.11904450940269      0.00000000000000
   21 c       4.26918753372935      5.14788810173901      0.00000000000000
   22 h       5.14913855114283      7.01770006262197      0.00000000000000
   23 h       7.15265859187805     -2.57165970750338      1.75357133651022
   24 h       7.15265859187805     -2.57165970750338     -1.75357133651022
   25 h       3.50293725479885     -7.96813482420647      0.00000000000000
   26 h      -8.65207580594168      0.95043476158451      0.00000000000000
   27 h      -5.80345193252582     -4.90855419141172     -1.75357133651022
   28 h      -5.80345193252582     -4.90855419141172      1.75357133651022
   29 h      -1.34920665935223      7.48021389891513     -1.75357133651022
   30 h      -1.34920665935223      7.48021389891513      1.75357133651022
  *************************************************************************
   ATOM                      CARTESIAN GRADIENTS  
    1 c      -0.01021971000595     -0.00244671135792      0.00000000000000
    2 c      -0.00011361352304     -0.01279604400081      0.00000000000000
    3 c       0.01113850593417      0.00629962980323      0.00000000000000
    4 c       0.00722876919466     -0.00762717280550      0.00000000000000
    5 c      -0.01102489241113      0.00649641419757      0.00000000000000
    6 c       0.00299094081129      0.01007388416342      0.00000000000000
    7 c      -0.00676240802422      0.01539416334865      0.00000000000000
    8 c       0.00436761160446     -0.01067375956011      0.00000000000000
    9 n      -0.00016484227144      0.00623612079557      0.00000000000000
   10 c      -0.00573810762904      0.01395437265745      0.00000000000000
   11 c      -0.00913024541366     -0.00065965285523      0.00000000000000
   12 c       0.01671294054205     -0.00184066453460      0.00000000000000
   13 c      -0.01142755273517      0.00155441717673      0.00000000000000
   14 n       0.00548306016575     -0.00297530280310      0.00000000000000
   15 c       0.01495389502974     -0.00200783935233      0.00000000000000
   16 c       0.00399384657652      0.00823685089864      0.00000000000000
   17 c      -0.00995053251783     -0.01355349881405      0.00000000000000
   18 c       0.00513639883714     -0.00757719804340      0.00000000000000
   19 c      -0.00921578740070     -0.01194653330512      0.00000000000000
   20 n      -0.00531821789431     -0.00326081799247      0.00000000000000
   21 c       0.00705994113071      0.00911934238338      0.00000000000000
   22 h      -0.00609413123638     -0.00091766801601      0.00000000000000
   23 h      -0.00633162074227      0.00318672043337      0.00562951384937
   24 h      -0.00633162074227      0.00318672043337     -0.00562951384937
   25 h       0.00225234180409      0.00573650647271      0.00000000000000
   26 h       0.00384178943229     -0.00481883845670      0.00000000000000
   27 h       0.00592559122119      0.00388998419325     -0.00562951384937
   28 h       0.00592559122119      0.00388998419325      0.00562951384937
   29 h       0.00040602952108     -0.00707670462661     -0.00562951384937
   30 h       0.00040602952108     -0.00707670462661      0.00562951384937
  *************************************************************************

  norm of actual CARTESIAN gradient:  6.10437E-02
  norm of actual INTERNAL  gradient:  6.37587E-02

  ENERGY =    -855.0277804817 a.u.; # of cycle =    3

  Approximate Hessian read from $hessapprox data section

  Hessian updated according to Powell formula
  Number of zero Hessian eigenvalues:   0

   5 first eigenvalues: 
  0.10750407  0.11615946  0.12081347  0.15032512  0.16344107

  Eigenvalue of transition vector:  0.10750407

                  #######################################
                   WARNING: HESSIAN HAS WRONG INERTIA!!! 
                  TRANSITION MODE HAS POSITIVE EIGENVALUE
                                0.11E+00
                  #######################################

  Largest and next-largest overlaps:   0.96817131  0.21208022

  Old transition vector    1 has overlap 0.96817131 with the new    1

        ***************  Trust radius update info  *****************
                Actual energy change:       -2.92630E-02
                Predicted energy change:    -2.79250E-02
                Actual step radius:          3.00000E-01
                Actual trust radius:         0.300000
                Energy change ratio:         1.047914
                New trust radius:            0.300000
        ************************************************************


  Newton step smaller than the trust radius!
  Trust radius has been reduced to:     0.193066

  Results of the TRO shift search
  Final shift: -2.59632E-01 residual -6.93889E-18
  Final step radius: 1.93066E-01

  Transforming internal coordinate displacements to Cartesian space
      Iteration   1 residual norm     1.930665E-01
      Iteration   2 residual norm     3.964612E-03
      Iteration   3 residual norm     7.107064E-07
      Iteration   4 residual norm     1.273671E-13
      Transformation converged
      Residual norm:    1.273671E-13 after    4 iterations

      ****************************************************************** 
                          CONVERGENCE INFORMATION

                               Converged?     Value      Criterion
             Energy change         no       0.0292630   0.0000010
             RMS of displacement   no       0.0455062   0.0005000
             RMS of gradient       no       0.0150281   0.0005000
             MAX displacement      no       0.1472152   0.0010000
             MAX gradient          no       0.0310567   0.0010000
      ****************************************************************** 


    ------------------------------------------------------------------------
         total  cpu-time :   0.04 seconds
         total wall-time :   0.05 seconds
    ------------------------------------------------------------------------

   ****  statpt : all done  ****


    2018-03-20 22:58:20.716 


 statpt (c-17-17.gp.local) : TURBOMOLE V7.2 ( 21454 ) 2 Oct 2017 at 16:43:05
 Copyright (C) 2017 TURBOMOLE GmbH, Karlsruhe


    2018-03-20 22:58:29.768 



                           this is S T A T P T   


                     hessian and coordinate update for
                          stationary point search 

                     by barbara unterreiner, marek sierka,
                           and reinhart ahlrichs

                          quantum chemistry group
                          universitaet  karlsruhe
                                  germany




              +--------------------------------------------------+
              | Atomic coordinate, charge and isotop information |
              +--------------------------------------------------+

                    atomic coordinates            atom    charge  isotop
         -0.87634779   -2.44708923    0.00000000    c      6.000     0
         -2.56977435   -0.44273740    0.00000000    c      6.000     0
          1.66830901   -2.00412117    0.00000000    c      6.000     0
          2.55741534    0.46460517    0.00000000    c      6.000     0
          0.90146534    2.44685857    0.00000000    c      6.000     0
         -1.68106754    1.98248407    0.00000000    c      6.000     0
          3.51036376   -3.83245255    0.00000000    c      6.000     0
          2.32658725   -6.29495249    0.00000000    c      6.000     0
         -0.27542518   -6.75094808    0.00000000    n      7.000     0
         -1.94764438   -4.79355988    0.00000000    c      6.000     0
         -4.99912511   -4.16035230    0.00000000    c      6.000     0
         -5.07418315   -1.12383792    0.00000000    c      6.000     0
         -6.61488240    1.13259258    0.00000000    c      6.000     0
         -5.70877995    3.61399924    0.00000000    n      7.000     0
         -3.17752244    4.08348945    0.00000000    c      6.000     0
         -1.10340822    6.40954550    0.00000000    c      6.000     0
          1.56381939    4.95629047    0.00000000    c      6.000     0
          6.10253334   -2.24919320    0.00000000    c      6.000     0
          5.12516682    0.71007043    0.00000000    c      6.000     0
          5.98420513    3.13694884    0.00000000    n      7.000     0
          4.28829515    5.16235991    0.00000000    c      6.000     0
          5.15584291    7.04570786    0.00000000    h      1.000     0
          7.12561763   -2.56003079    1.78853399    h      1.000     0
          7.12561763   -2.56003079   -1.78853399    h      1.000     0
          3.52384054   -7.98794487    0.00000000    h      1.000     0
         -8.67968345    0.94223701    0.00000000    h      1.000     0
         -5.77986052   -4.89095049   -1.78853399    h      1.000     0
         -5.77986052   -4.89095049    1.78853399    h      1.000     0
         -1.34575712    7.45098128   -1.78853399    h      1.000     0
         -1.34575712    7.45098128    1.78853399    h      1.000     0
 
       center of nuclear mass  :   -0.00000000    0.00000000    0.00000000
       center of nuclear charge:   -0.00000000    0.00000000    0.00000000
 
        ***************  Stationary point options ******************
        ************************************************************
           Maximum allowed trust radius:           3.000000E-01
           Minimum allowed trust radius:           1.000000E-03
           Initial trust radius:                   1.500000E-01
           GDIIS used if gradient norm <           1.000000E-02
           Number of previous steps for GDIIS:       5
           Hessian update method:                  Powell
           Initial index of transition vector:       1
                        *** Convergence criteria ***                
           Threshold for energy change:            1.000000E-06
           Threshold for max displacement element: 1.000000E-03
           Threshold for max gradient element :    1.000000E-03
           Threshold for RMS of displacement:      5.000000E-04
           Threshold for RMS of gradient:          5.000000E-04
        ************************************************************
 
     Number of symmetry restricted degrees of freedom:    19
     Constituted by:     0 translational degrees of freedom
                         1 rotational degrees of freedom
                      18 internal degrees of freedom

  *************************************************************************
   ATOM                      CARTESIAN COORDINATES
    1 c      -0.87634779220059     -2.44708923255420      0.00000000000000
    2 c      -2.56977435302170     -0.44273739703701      0.00000000000000
    3 c       1.66830900955029     -2.00412117319200      0.00000000000000
    4 c       2.55741533681959      0.46460516568098      0.00000000000000
    5 c       0.90146534347141      2.44685857022901      0.00000000000000
    6 c      -1.68106754461901      1.98248406687322      0.00000000000000
    7 c       3.51036375869870     -3.83245254874882      0.00000000000000
    8 c       2.32658725101738     -6.29495249372269      0.00000000000000
    9 n      -0.27542517888138     -6.75094808427510      0.00000000000000
   10 c      -1.94764437823353     -4.79355988219154      0.00000000000000
   11 c      -4.99912511481641     -4.16035230092880      0.00000000000000
   12 c      -5.07418314536425     -1.12383791718289      0.00000000000000
   13 c      -6.61488240068874      1.13259258335930      0.00000000000000
   14 n      -5.70877995117145      3.61399924389071      0.00000000000000
   15 c      -3.17752244342304      4.08348945018395      0.00000000000000
   16 c      -1.10340822388917      6.40954549659222      0.00000000000000
   17 c       1.56381938666555      4.95629046593171      0.00000000000000
   18 c       6.10253333870559     -2.24919319566341      0.00000000000000
   19 c       5.12516682165657      0.71007043200758      0.00000000000000
   20 n       5.98420513005282      3.13694884038441      0.00000000000000
   21 c       4.28829514967137      5.16235991036340      0.00000000000000
   22 h       5.15584291343756      7.04570786331446      0.00000000000000
   23 h       7.12561763326882     -2.56003079127015      1.78853399026573
   24 h       7.12561763326882     -2.56003079127015     -1.78853399026573
   25 h       3.52384054055531     -7.98794487261613      0.00000000000000
   26 h      -8.67968345399287      0.94223700930168      0.00000000000000
   27 h      -5.77986051634474     -4.89095049243006     -1.78853399026573
   28 h      -5.77986051634474     -4.89095049243006      1.78853399026573
   29 h      -1.34575711692408      7.45098128370024     -1.78853399026573
   30 h      -1.34575711692408      7.45098128370024      1.78853399026573
  *************************************************************************
   ATOM                      CARTESIAN GRADIENTS  
    1 c      -0.00425697020224     -0.00266408216847      0.00000000000000
    2 c       0.00023622545969     -0.00365806615223      0.00000000000000
    3 c       0.00304986548672      0.00203361032523      0.00000000000000
    4 c       0.00443564793678     -0.00235460325405      0.00000000000000
    5 c      -0.00328609094642      0.00162445582700      0.00000000000000
    6 c      -0.00017867773454      0.00501868542253      0.00000000000000
    7 c       0.00088908906697      0.00686148566195      0.00000000000000
    8 c       0.00021366739493     -0.00889313500823      0.00000000000000
    9 n      -0.00007970703557      0.00467816874205      0.00000000000000
   10 c      -0.00444394373994      0.00140869799600      0.00000000000000
   11 c      -0.02105938696568     -0.00540369859105      0.00000000000000
   12 c       0.00549767635747     -0.00420071654920      0.00000000000000
   13 c      -0.00780851453388      0.00426152611214      0.00000000000000
   14 n       0.00409126649159     -0.00227005605336      0.00000000000000
   15 c       0.00344194012077      0.00314421917378      0.00000000000000
   16 c       0.00584995322860      0.02093981339593      0.00000000000000
   17 c      -0.00638676542444     -0.00266076911275      0.00000000000000
   18 c       0.01520943373708     -0.01553611480489      0.00000000000000
   19 c       0.00100200361917     -0.00455291716978      0.00000000000000
   20 n      -0.00401155945602     -0.00240811268869      0.00000000000000
   21 c       0.00759484713894      0.00463160889609      0.00000000000000
   22 h      -0.00611603139690      0.00161768825691      0.00000000000000
   23 h      -0.01079048293302      0.00564519573827      0.00660469761537
   24 h      -0.01079048293302      0.00564519573827     -0.00660469761537
   25 h       0.00445897482434      0.00448779443161      0.00000000000000
   26 h       0.00165705657257     -0.00610548268851      0.00000000000000
   27 h       0.01028412438519      0.00652223446996     -0.00660469761537
   28 h       0.01028412438519      0.00652223446996      0.00660469761537
   29 h       0.00050635854783     -0.01216743020823     -0.00660469761537
   30 h       0.00050635854783     -0.01216743020823      0.00660469761537
  *************************************************************************

  norm of actual CARTESIAN gradient:  5.75983E-02
  norm of actual INTERNAL  gradient:  5.19492E-02

  ENERGY =    -855.0245726415 a.u.; # of cycle =    4

  Approximate Hessian read from $hessapprox data section

  Hessian updated according to Powell formula
  Number of zero Hessian eigenvalues:   0

   5 first eigenvalues: 
  0.10573481  0.11604387  0.12254770  0.15145505  0.16370194

  Eigenvalue of transition vector:  0.10573481

                  #######################################
                   WARNING: HESSIAN HAS WRONG INERTIA!!! 
                  TRANSITION MODE HAS POSITIVE EIGENVALUE
                                0.11E+00
                  #######################################

  Largest and next-largest overlaps:   0.90567233  0.33481338

  Old transition vector    1 has overlap 0.90567233 with the new    1

        ***************  Trust radius update info  *****************
                Actual energy change:        3.20784E-03
                Predicted energy change:     3.37909E-03
                Actual step radius:          1.93066E-01
                Actual trust radius:         0.193066
                Energy change ratio:         0.949322
                New trust radius:            0.300000
        ************************************************************


  Results of the TRO shift search
  Final shift: -2.33432E-01 residual -5.82867E-16
  Final step radius: 3.00000E-01

  Transforming internal coordinate displacements to Cartesian space
      Iteration   1 residual norm     3.000000E-01
      Iteration   2 residual norm     6.579256E-03
      Iteration   3 residual norm     4.566913E-06
      Iteration   4 residual norm     4.088869E-12
      Transformation converged
      Residual norm:    4.088869E-12 after    4 iterations

      ****************************************************************** 
                          CONVERGENCE INFORMATION

                               Converged?     Value      Criterion
             Energy change         no       0.0032078   0.0000010
             RMS of displacement   no       0.0707107   0.0005000
             RMS of gradient       no       0.0122446   0.0005000
             MAX displacement      no       0.2131426   0.0010000
             MAX gradient          no       0.0433159   0.0010000
      ****************************************************************** 


    ------------------------------------------------------------------------
         total  cpu-time :   0.04 seconds
         total wall-time :   0.05 seconds
    ------------------------------------------------------------------------

   ****  statpt : all done  ****


    2018-03-20 22:58:29.808 


 statpt (c-17-17.gp.local) : TURBOMOLE V7.2 ( 21454 ) 2 Oct 2017 at 16:43:05
 Copyright (C) 2017 TURBOMOLE GmbH, Karlsruhe


    2018-03-20 22:58:39.426 



                           this is S T A T P T   


                     hessian and coordinate update for
                          stationary point search 

                     by barbara unterreiner, marek sierka,
                           and reinhart ahlrichs

                          quantum chemistry group
                          universitaet  karlsruhe
                                  germany




              +--------------------------------------------------+
              | Atomic coordinate, charge and isotop information |
              +--------------------------------------------------+

                    atomic coordinates            atom    charge  isotop
         -0.86797502   -2.46412636    0.00000000    c      6.000     0
         -2.56507337   -0.44623524    0.00000000    c      6.000     0
          1.66898774   -1.99830108    0.00000000    c      6.000     0
          2.56798354    0.48037476    0.00000000    c      6.000     0
          0.89608563    2.44453632    0.00000000    c      6.000     0
         -1.70000851    1.98375160    0.00000000    c      6.000     0
          3.51797851   -3.84173299    0.00000000    c      6.000     0
          2.34099982   -6.30473823    0.00000000    c      6.000     0
         -0.24864399   -6.76881254    0.00000000    n      7.000     0
         -1.91147262   -4.83330996    0.00000000    c      6.000     0
         -5.07280415   -4.12575822    0.00000000    c      6.000     0
         -5.08602762   -1.12579226    0.00000000    c      6.000     0
         -6.63056338    1.12500380    0.00000000    c      6.000     0
         -5.73764161    3.59973828    0.00000000    n      7.000     0
         -3.23003290    4.07203882    0.00000000    c      6.000     0
         -1.03660935    6.45605637    0.00000000    c      6.000     0
          1.56804911    4.96752525    0.00000000    c      6.000     0
          6.10941350   -2.33029815    0.00000000    c      6.000     0
          5.14150552    0.76127114    0.00000000    c      6.000     0
          5.98628561    3.16907426    0.00000000    n      7.000     0
          4.28956356    5.17973443    0.00000000    c      6.000     0
          5.14351524    7.07210863    0.00000000    h      1.000     0
          7.08196170   -2.56474620    1.82301723    h      1.000     0
          7.08196170   -2.56474620   -1.82301723    h      1.000     0
          3.55286811   -7.99046918    0.00000000    h      1.000     0
         -8.69638336    0.91836055    0.00000000    h      1.000     0
         -5.76211621   -4.85078565   -1.82301723    h      1.000     0
         -5.76211621   -4.85078565    1.82301723    h      1.000     0
         -1.31984549    7.41553184   -1.82301723    h      1.000     0
         -1.31984549    7.41553184    1.82301723    h      1.000     0
 
       center of nuclear mass  :   -0.00000000    0.00000000    0.00000000
       center of nuclear charge:    0.00000000    0.00000000    0.00000000
 
        ***************  Stationary point options ******************
        ************************************************************
           Maximum allowed trust radius:           3.000000E-01
           Minimum allowed trust radius:           1.000000E-03
           Initial trust radius:                   1.500000E-01
           GDIIS used if gradient norm <           1.000000E-02
           Number of previous steps for GDIIS:       5
           Hessian update method:                  Powell
           Initial index of transition vector:       1
                        *** Convergence criteria ***                
           Threshold for energy change:            1.000000E-06
           Threshold for max displacement element: 1.000000E-03
           Threshold for max gradient element :    1.000000E-03
           Threshold for RMS of displacement:      5.000000E-04
           Threshold for RMS of gradient:          5.000000E-04
        ************************************************************
 
     Number of symmetry restricted degrees of freedom:    19
     Constituted by:     0 translational degrees of freedom
                         1 rotational degrees of freedom
                      18 internal degrees of freedom

  *************************************************************************
   ATOM                      CARTESIAN COORDINATES
    1 c      -0.86797502465130     -2.46412635745660      0.00000000000000
    2 c      -2.56507337332663     -0.44623524062195      0.00000000000000
    3 c       1.66898774110578     -1.99830108356093      0.00000000000000
    4 c       2.56798353601787      0.48037475752985      0.00000000000000
    5 c       0.89608563222085      2.44453632418288      0.00000000000000
    6 c      -1.70000851136658      1.98375159992675      0.00000000000000
    7 c       3.51797850678279     -3.84173298782358      0.00000000000000
    8 c       2.34099981544595     -6.30473823066493      0.00000000000000
    9 n      -0.24864399158250     -6.76881253656765      0.00000000000000
   10 c      -1.91147261572318     -4.83330996005519      0.00000000000000
   11 c      -5.07280414831055     -4.12575821889931      0.00000000000000
   12 c      -5.08602761540331     -1.12579226292974      0.00000000000000
   13 c      -6.63056337968976      1.12500380490160      0.00000000000000
   14 n      -5.73764161433094      3.59973828149265      0.00000000000000
   15 c      -3.23003290191054      4.07203882388216      0.00000000000000
   16 c      -1.03660935328396      6.45605637030968      0.00000000000000
   17 c       1.56804910862053      4.96752525075333      0.00000000000000
   18 c       6.10941350159451     -2.33029815141036      0.00000000000000
   19 c       5.14150551763372      0.76127113617302      0.00000000000000
   20 n       5.98628560591343      3.16907425507503      0.00000000000000
   21 c       4.28956356424382      5.17973442576334      0.00000000000000
   22 h       5.14351524310773      7.07210863448042      0.00000000000000
   23 h       7.08196170387827     -2.56474619716460      1.82301722728797
   24 h       7.08196170387827     -2.56474619716460     -1.82301722728797
   25 h       3.55286811422945     -7.99046918252400      0.00000000000000
   26 h      -8.69638335733718      0.91836054804359      0.00000000000000
   27 h      -5.76211621294321     -4.85078564560480     -1.82301722728797
   28 h      -5.76211621294321     -4.85078564560480      1.82301722728797
   29 h      -1.31984549093506      7.41553184276943     -1.82301722728797
   30 h      -1.31984549093506      7.41553184276943      1.82301722728797
  *************************************************************************
   ATOM                      CARTESIAN GRADIENTS  
    1 c       0.00078622947550     -0.00571307114301      0.00000000000000
    2 c       0.00607868783380      0.00461702909609      0.00000000000000
    3 c      -0.00703780840412      0.00295578353769      0.00000000000000
    4 c       0.00455455000573      0.00353743027050      0.00000000000000
    5 c       0.00095912057032     -0.00757281263379      0.00000000000000
    6 c      -0.00534077948122      0.00217564087252      0.00000000000000
    7 c       0.00684216500794      0.00451294535018      0.00000000000000
    8 c      -0.00520508060897     -0.00878855774108      0.00000000000000
    9 n       0.00066871478027      0.00821746103569      0.00000000000000
   10 c       0.00564146414451     -0.01136402627394      0.00000000000000
   11 c      -0.03619463638513     -0.00300967529403      0.00000000000000
   12 c       0.00048724281518     -0.00818196138885      0.00000000000000
   13 c      -0.00500857396192      0.00890201090666      0.00000000000000
   14 n       0.00678217262138     -0.00468785450544      0.00000000000000
   15 c      -0.01266226751476      0.00079636187328      0.00000000000000
   16 c       0.01549086293080      0.03285031223728      0.00000000000000
   17 c      -0.00732940782311      0.00366901603867      0.00000000000000
   18 c       0.02070377345433     -0.02984063694325      0.00000000000000
   19 c       0.00702080337025      0.01056766440066      0.00000000000000
   20 n      -0.00745088740165     -0.00352960653024      0.00000000000000
   21 c       0.01021365457089     -0.00011345316557      0.00000000000000
   22 h      -0.00583486865021      0.00224756343055      0.00000000000000
   23 h      -0.01459814075259      0.00832820815883      0.00769981290756
   24 h      -0.01459814075259      0.00832820815883     -0.00769981290756
   25 h       0.00486388135258      0.00392936276355      0.00000000000000
   26 h       0.00097098729763     -0.00617692619411      0.00000000000000
   27 h       0.01451151020985      0.00847825666035     -0.00769981290756
   28 h       0.01451151020985      0.00847825666035      0.00769981290756
   29 h       0.00008663054274     -0.01680646481918     -0.00769981290756
   30 h       0.00008663054274     -0.01680646481918      0.00769981290756
  *************************************************************************

  norm of actual CARTESIAN gradient:  8.71841E-02
  norm of actual INTERNAL  gradient:  6.70960E-02

  ENERGY =    -855.0129105835 a.u.; # of cycle =    5

  Approximate Hessian read from $hessapprox data section

  Hessian updated according to Powell formula
  Number of zero Hessian eigenvalues:   0

   5 first eigenvalues: 
  0.07609570  0.11610938  0.12310555  0.15144684  0.16349554

  Eigenvalue of transition vector:  0.07609570

                  #######################################
                   WARNING: HESSIAN HAS WRONG INERTIA!!! 
                  TRANSITION MODE HAS POSITIVE EIGENVALUE
                                0.76E-01
                  #######################################

  Largest and next-largest overlaps:   0.91200603  0.29620411

  Old transition vector    1 has overlap 0.91200603 with the new    1

        ***************  Trust radius update info  *****************
                Actual energy change:        1.16621E-02
                Predicted energy change:     1.27174E-02
                Actual step radius:          3.00000E-01
                Actual trust radius:         0.300000
                Energy change ratio:         0.917017
                New trust radius:            0.300000
        ************************************************************


  Results of the TRO shift search
  Final shift: -2.41100E-01 residual -6.93889E-16
  Final step radius: 3.00000E-01

  Transforming internal coordinate displacements to Cartesian space
      Iteration   1 residual norm     3.000000E-01
      Iteration   2 residual norm     3.075113E-03
      Iteration   3 residual norm     5.758950E-07
      Iteration   4 residual norm     2.386013E-14
      Transformation converged
      Residual norm:    2.386013E-14 after    4 iterations

      ****************************************************************** 
                          CONVERGENCE INFORMATION

                               Converged?     Value      Criterion
             Energy change         no       0.0116621   0.0000010
             RMS of displacement   no       0.0707107   0.0005000
             RMS of gradient       no       0.0158147   0.0005000
             MAX displacement      no       0.2505627   0.0010000
             MAX gradient          no       0.0575071   0.0010000
      ****************************************************************** 


    ------------------------------------------------------------------------
         total  cpu-time :   0.04 seconds
         total wall-time :   0.05 seconds
    ------------------------------------------------------------------------

   ****  statpt : all done  ****


    2018-03-20 22:58:39.466 


 statpt (c-17-17.gp.local) : TURBOMOLE V7.2 ( 21454 ) 2 Oct 2017 at 16:43:05
 Copyright (C) 2017 TURBOMOLE GmbH, Karlsruhe


    2018-03-20 22:58:48.150 



                           this is S T A T P T   


                     hessian and coordinate update for
                          stationary point search 

                     by barbara unterreiner, marek sierka,
                           and reinhart ahlrichs

                          quantum chemistry group
                          universitaet  karlsruhe
                                  germany




              +--------------------------------------------------+
              | Atomic coordinate, charge and isotop information |
              +--------------------------------------------------+

                    atomic coordinates            atom    charge  isotop
         -0.86576197   -2.47183564    0.00000000    c      6.000     0
         -2.56474215   -0.45076797    0.00000000    c      6.000     0
          1.67274759   -1.99574787    0.00000000    c      6.000     0
          2.57355344    0.48614596    0.00000000    c      6.000     0
          0.89199456    2.44651584    0.00000000    c      6.000     0
         -1.70779147    1.98568968    0.00000000    c      6.000     0
          3.53097573   -3.84523038    0.00000000    c      6.000     0
          2.38901225   -6.30673568    0.00000000    c      6.000     0
         -0.21048170   -6.78881996    0.00000000    n      7.000     0
         -1.86184457   -4.86481560    0.00000000    c      6.000     0
         -5.15370278   -4.07962506    0.00000000    c      6.000     0
         -5.09555505   -1.13529949    0.00000000    c      6.000     0
         -6.65629944    1.08442254    0.00000000    c      6.000     0
         -5.77404970    3.57669248    0.00000000    n      7.000     0
         -3.28213161    4.04481250    0.00000000    c      6.000     0
         -0.95620755    6.50305006    0.00000000    c      6.000     0
          1.56457933    4.98052987    0.00000000    c      6.000     0
          6.10991033   -2.42342500    0.00000000    c      6.000     0
          5.14397618    0.82000311    0.00000000    c      6.000     0
          5.98453140    3.21212749    0.00000000    n      7.000     0
          4.26728719    5.22231314    0.00000000    c      6.000     0
          5.13303818    7.11121364    0.00000000    h      1.000     0
          7.09398852   -2.61358780    1.81924790    h      1.000     0
          7.09398852   -2.61358780   -1.81924790    h      1.000     0
          3.59197258   -8.00094828    0.00000000    h      1.000     0
         -8.72501076    0.88973464    0.00000000    h      1.000     0
         -5.81042769   -4.83678037   -1.81924790    h      1.000     0
         -5.81042769   -4.83678037    1.81924790    h      1.000     0
         -1.28356083    7.45036817   -1.81924790    h      1.000     0
         -1.28356083    7.45036817    1.81924790    h      1.000     0
 
       center of nuclear mass  :   -0.00000000    0.00000000    0.00000000
       center of nuclear charge:   -0.00000000    0.00000000    0.00000000
 
        ***************  Stationary point options ******************
        ************************************************************
           Maximum allowed trust radius:           3.000000E-01
           Minimum allowed trust radius:           1.000000E-03
           Initial trust radius:                   1.500000E-01
           GDIIS used if gradient norm <           1.000000E-02
           Number of previous steps for GDIIS:       5
           Hessian update method:                  Powell
           Initial index of transition vector:       1
                        *** Convergence criteria ***                
           Threshold for energy change:            1.000000E-06
           Threshold for max displacement element: 1.000000E-03
           Threshold for max gradient element :    1.000000E-03
           Threshold for RMS of displacement:      5.000000E-04
           Threshold for RMS of gradient:          5.000000E-04
        ************************************************************
 
     Number of symmetry restricted degrees of freedom:    19
     Constituted by:     0 translational degrees of freedom
                         1 rotational degrees of freedom
                      18 internal degrees of freedom

  *************************************************************************
   ATOM                      CARTESIAN COORDINATES
    1 c      -0.86576196922912     -2.47183564084556      0.00000000000000
    2 c      -2.56474214641108     -0.45076797219409      0.00000000000000
    3 c       1.67274758833801     -1.99574786685157      0.00000000000000
    4 c       2.57355344356659      0.48614596143992      0.00000000000000
    5 c       0.89199455807306      2.44651583904566      0.00000000000000
    6 c      -1.70779147433748      1.98568967940564      0.00000000000000
    7 c       3.53097572593725     -3.84523037534463      0.00000000000000
    8 c       2.38901225325855     -6.30673568001763      0.00000000000000
    9 n      -0.21048169649960     -6.78881996418702      0.00000000000000
   10 c      -1.86184457009390     -4.86481560214077      0.00000000000000
   11 c      -5.15370277656517     -4.07962505856944      0.00000000000000
   12 c      -5.09555505142065     -1.13529949113553      0.00000000000000
   13 c      -6.65629944047827      1.08442253873462      0.00000000000000
   14 n      -5.77404970245515      3.57669247829383      0.00000000000000
   15 c      -3.28213161113383      4.04481249666982      0.00000000000000
   16 c      -0.95620755035413      6.50305005734456      0.00000000000000
   17 c       1.56457932548341      4.98052986648017      0.00000000000000
   18 c       6.10991032691929     -2.42342499877511      0.00000000000000
   19 c       5.14397618122773      0.82000310547094      0.00000000000000
   20 n       5.98453139895474      3.21212748589323      0.00000000000000
   21 c       4.26728718721973      5.22231314128302      0.00000000000000
   22 h       5.13303817937719      7.11121364459238      0.00000000000000
   23 h       7.09398851804568     -2.61358779943684      1.81924790181124
   24 h       7.09398851804568     -2.61358779943684     -1.81924790181124
   25 h       3.59197257826692     -8.00094828423227      0.00000000000000
   26 h      -8.72501075764411      0.88973463963990      0.00000000000000
   27 h      -5.81042768835621     -4.83678037106425     -1.81924790181124
   28 h      -5.81042768835621     -4.83678037106425      1.81924790181124
   29 h      -1.28356082968947      7.45036817050112     -1.81924790181124
   30 h      -1.28356082968947      7.45036817050112      1.81924790181124
  *************************************************************************
   ATOM                      CARTESIAN GRADIENTS  
    1 c      -0.00221496309450     -0.00579601212814      0.00000000000000
    2 c       0.00747005234412      0.00738303437302      0.00000000000000
    3 c      -0.01012892149610      0.00277773791110      0.00000000000000
    4 c       0.00612697529087      0.00097979175579      0.00000000000000
    5 c       0.00265886915198     -0.01016077228412      0.00000000000000
    6 c      -0.00391201219637      0.00481622037236      0.00000000000000
    7 c       0.00985656087029      0.00576452646120      0.00000000000000
    8 c       0.00014314164084     -0.00502387957939      0.00000000000000
    9 n      -0.00254699691869      0.00647881411377      0.00000000000000
   10 c       0.01487399018717     -0.01407535824871      0.00000000000000
   11 c      -0.04263004967029      0.00511623278050      0.00000000000000
   12 c       0.00006394592104     -0.01141829533822      0.00000000000000
   13 c      -0.00442237816173      0.00238797549239      0.00000000000000
   14 n       0.00688431606826     -0.00103364302194      0.00000000000000
   15 c      -0.01962661290434     -0.00584357423337      0.00000000000000
   16 c       0.02574581239473      0.03436058958882      0.00000000000000
   17 c      -0.00992050679133      0.00565376887702      0.00000000000000
   18 c       0.01688423727556     -0.03947682236932      0.00000000000000
   19 c       0.00475262271717      0.01991893248208      0.00000000000000
   20 n      -0.00433731914957     -0.00544517109183      0.00000000000000
   21 c       0.00427923652089      0.00263590408701      0.00000000000000
   22 h      -0.00388550204766      0.00235631589877      0.00000000000000
   23 h      -0.01374595866184      0.00854725054411      0.00678112391433
   24 h      -0.01374595866184      0.00854725054411     -0.00678112391433
   25 h       0.00398338045151      0.00218678553035      0.00000000000000
   26 h      -0.00009787840385     -0.00454310142912      0.00000000000000
   27 h       0.01427511543463      0.00763072412846     -0.00678112391433
   28 h       0.01427511543463      0.00763072412846      0.00678112391433
   29 h      -0.00052915677279     -0.01617797467258     -0.00678112391433
   30 h      -0.00052915677279     -0.01617797467258      0.00678112391433
  *************************************************************************

  norm of actual CARTESIAN gradient:  9.87784E-02
  norm of actual INTERNAL  gradient:  7.10812E-02

  ENERGY =    -855.0041243768 a.u.; # of cycle =    6

  Approximate Hessian read from $hessapprox data section

  Hessian updated according to Powell formula
  Number of zero Hessian eigenvalues:   0

   5 first eigenvalues: 
  0.05013224  0.11773067  0.12010396  0.15160631  0.16260070

  Eigenvalue of transition vector:  0.05013224

                  #######################################
                   WARNING: HESSIAN HAS WRONG INERTIA!!! 
                  TRANSITION MODE HAS POSITIVE EIGENVALUE
                                0.50E-01
                  #######################################

  Largest and next-largest overlaps:   0.95705149  0.18185680

  Old transition vector    1 has overlap 0.95705149 with the new    1

        ***************  Trust radius update info  *****************
                Actual energy change:        8.78621E-03
                Predicted energy change:     1.01857E-02
                Actual step radius:          3.00000E-01
                Actual trust radius:         0.300000
                Energy change ratio:         0.862604
                New trust radius:            0.300000
        ************************************************************


  Results of the TRO shift search
  Final shift: -2.23497E-01 residual -2.77556E-17
  Final step radius: 3.00000E-01

  Transforming internal coordinate displacements to Cartesian space
      Iteration   1 residual norm     3.000000E-01
      Iteration   2 residual norm     2.849151E-03
      Iteration   3 residual norm     3.978649E-07
      Iteration   4 residual norm     3.973787E-14
      Transformation converged
      Residual norm:    3.973787E-14 after    4 iterations

      ****************************************************************** 
                          CONVERGENCE INFORMATION

                               Converged?     Value      Criterion
             Energy change         no       0.0087862   0.0000010
             RMS of displacement   no       0.0707107   0.0005000
             RMS of gradient       no       0.0167540   0.0005000
             MAX displacement      no       0.2564353   0.0010000
             MAX gradient          no       0.0545819   0.0010000
      ****************************************************************** 


    ------------------------------------------------------------------------
         total  cpu-time :   0.04 seconds
         total wall-time :   0.06 seconds
    ------------------------------------------------------------------------

   ****  statpt : all done  ****


    2018-03-20 22:58:48.191 


 statpt (c-17-17.gp.local) : TURBOMOLE V7.2 ( 21454 ) 2 Oct 2017 at 16:43:05
 Copyright (C) 2017 TURBOMOLE GmbH, Karlsruhe


    2018-03-20 22:58:57.538 



                           this is S T A T P T   


                     hessian and coordinate update for
                          stationary point search 

                     by barbara unterreiner, marek sierka,
                           and reinhart ahlrichs

                          quantum chemistry group
                          universitaet  karlsruhe
                                  germany




              +--------------------------------------------------+
              | Atomic coordinate, charge and isotop information |
              +--------------------------------------------------+

                    atomic coordinates            atom    charge  isotop
         -0.85837555   -2.48091749    0.00000000    c      6.000     0
         -2.56750655   -0.46465419    0.00000000    c      6.000     0
          1.68615561   -1.99119880    0.00000000    c      6.000     0
          2.57772535    0.49708371    0.00000000    c      6.000     0
          0.88135094    2.45585299    0.00000000    c      6.000     0
         -1.71934980    1.98383378    0.00000000    c      6.000     0
          3.54333438   -3.85301279    0.00000000    c      6.000     0
          2.42262839   -6.31563275    0.00000000    c      6.000     0
         -0.16067529   -6.80608734    0.00000000    n      7.000     0
         -1.80312669   -4.89658427    0.00000000    c      6.000     0
         -5.23211804   -4.04871849    0.00000000    c      6.000     0
         -5.10847415   -1.14211119    0.00000000    c      6.000     0
         -6.68081260    1.05975864    0.00000000    c      6.000     0
         -5.81390689    3.54219256    0.00000000    n      7.000     0
         -3.33900303    4.00984566    0.00000000    c      6.000     0
         -0.89023405    6.55550639    0.00000000    c      6.000     0
          1.56513977    4.99512398    0.00000000    c      6.000     0
          6.12235209   -2.50678789    0.00000000    c      6.000     0
          5.14212972    0.88673861    0.00000000    c      6.000     0
          5.97458219    3.26389478    0.00000000    n      7.000     0
          4.25818421    5.25587411    0.00000000    c      6.000     0
          5.12597237    7.14297906    0.00000000    h      1.000     0
          7.15539781   -2.68496559    1.79326581    h      1.000     0
          7.15539781   -2.68496559   -1.79326581    h      1.000     0
          3.62301514   -8.01071183    0.00000000    h      1.000     0
         -8.74898752    0.86773276    0.00000000    h      1.000     0
         -5.90294731   -4.85427348   -1.79326581    h      1.000     0
         -5.90294731   -4.85427348    1.79326581    h      1.000     0
         -1.25245049    7.53923907   -1.79326581    h      1.000     0
         -1.25245049    7.53923907    1.79326581    h      1.000     0
 
       center of nuclear mass  :   -0.00000000    0.00000000    0.00000000
       center of nuclear charge:   -0.00000000    0.00000000    0.00000000
 
        ***************  Stationary point options ******************
        ************************************************************
           Maximum allowed trust radius:           3.000000E-01
           Minimum allowed trust radius:           1.000000E-03
           Initial trust radius:                   1.500000E-01
           GDIIS used if gradient norm <           1.000000E-02
           Number of previous steps for GDIIS:       5
           Hessian update method:                  Powell
           Initial index of transition vector:       1
                        *** Convergence criteria ***                
           Threshold for energy change:            1.000000E-06
           Threshold for max displacement element: 1.000000E-03
           Threshold for max gradient element :    1.000000E-03
           Threshold for RMS of displacement:      5.000000E-04
           Threshold for RMS of gradient:          5.000000E-04
        ************************************************************
 
     Number of symmetry restricted degrees of freedom:    19
     Constituted by:     0 translational degrees of freedom
                         1 rotational degrees of freedom
                      18 internal degrees of freedom

  *************************************************************************
   ATOM                      CARTESIAN COORDINATES
    1 c      -0.85837555068702     -2.48091749354438      0.00000000000000
    2 c      -2.56750655163363     -0.46465419154830      0.00000000000000
    3 c       1.68615560967255     -1.99119880232355      0.00000000000000
    4 c       2.57772534944615      0.49708371388978      0.00000000000000
    5 c       0.88135094196107      2.45585299387184      0.00000000000000
    6 c      -1.71934979875914      1.98383377965461      0.00000000000000
    7 c       3.54333438100246     -3.85301278855572      0.00000000000000
    8 c       2.42262839328654     -6.31563275424188      0.00000000000000
    9 n      -0.16067529409612     -6.80608734238218      0.00000000000000
   10 c      -1.80312669338486     -4.89658427372146      0.00000000000000
   11 c      -5.23211804211949     -4.04871849292447      0.00000000000000
   12 c      -5.10847414649680     -1.14211119377306      0.00000000000000
   13 c      -6.68081260278982      1.05975864460533      0.00000000000000
   14 n      -5.81390689183065      3.54219255763889      0.00000000000000
   15 c      -3.33900302612171      4.00984565957386      0.00000000000000
   16 c      -0.89023404658470      6.55550638653662      0.00000000000000
   17 c       1.56513976549436      4.99512398232879      0.00000000000000
   18 c       6.12235208870418     -2.50678789361214      0.00000000000000
   19 c       5.14212971950657      0.88673861414759      0.00000000000000
   20 n       5.97458218592676      3.26389478474333      0.00000000000000
   21 c       4.25818420950329      5.25587410963656      0.00000000000000
   22 h       5.12597237497947      7.14297906377006      0.00000000000000
   23 h       7.15539780730058     -2.68496559077438      1.79326581294272
   24 h       7.15539780730058     -2.68496559077438     -1.79326581294272
   25 h       3.62301514043552     -8.01071182771451      0.00000000000000
   26 h      -8.74898751541498      0.86773276394446      0.00000000000000
   27 h      -5.90294731354799     -4.85427347991857     -1.79326581294272
   28 h      -5.90294731354799     -4.85427347991857      1.79326581294272
   29 h      -1.25245049375259      7.53923907069298     -1.79326581294272
   30 h      -1.25245049375259      7.53923907069298      1.79326581294272
  *************************************************************************
   ATOM                      CARTESIAN GRADIENTS  
    1 c      -0.00538318536085     -0.00498352259559      0.00000000000000
    2 c       0.00806016356585      0.00631763050157      0.00000000000000
    3 c      -0.00950131028901      0.00382149115590      0.00000000000000
    4 c       0.00700744984854     -0.00217021397798      0.00000000000000
    5 c       0.00144114672315     -0.01013912165748      0.00000000000000
    6 c      -0.00162426448769      0.00715373657357      0.00000000000000
    7 c       0.01015113172039      0.00564567105740      0.00000000000000
    8 c      -0.00210943666184     -0.00350539555790      0.00000000000000
    9 n       0.00005141179121      0.00660227534542      0.00000000000000
   10 c       0.02351958105220     -0.01555634560100      0.00000000000000
   11 c      -0.04230530826747      0.01222531445788      0.00000000000000
   12 c      -0.00018627130308     -0.01161397347572      0.00000000000000
   13 c      -0.00198104327254      0.00357952351578      0.00000000000000
   14 n       0.00569203227631     -0.00334566158995      0.00000000000000
   15 c      -0.02523198100661     -0.01259038187707      0.00000000000000
   16 c       0.03174008702351      0.03052481444562      0.00000000000000
   17 c      -0.00996486041731      0.00596830241832      0.00000000000000
   18 c       0.01056522124396     -0.04275012890350      0.00000000000000
   19 c       0.00171239995441      0.02814672747807      0.00000000000000
   20 n      -0.00574344406752     -0.00325661375547      0.00000000000000
   21 c       0.00409047993438     -0.00007412795788      0.00000000000000
   22 h      -0.00252107697343      0.00140022386412      0.00000000000000
   23 h      -0.00971904926943      0.00725379440661      0.00493938646154
   24 h      -0.00971904926943      0.00725379440661     -0.00493938646154
   25 h       0.00247316792403      0.00148320477183      0.00000000000000
   26 h       0.00004790904940     -0.00288342863595      0.00000000000000
   27 h       0.01114149486467      0.00479004636465     -0.00493938646154
[...]
        ************************************************************
           Maximum allowed trust radius:           3.000000E-01
           Minimum allowed trust radius:           1.000000E-03
           Initial trust radius:                   1.500000E-01
           GDIIS used if gradient norm <           1.000000E-02
           Number of previous steps for GDIIS:       5
           Hessian update method:                  Powell
           Initial index of transition vector:       1
                        *** Convergence criteria ***                
           Threshold for energy change:            1.000000E-06
           Threshold for max displacement element: 1.000000E-03
           Threshold for max gradient element :    1.000000E-03
           Threshold for RMS of displacement:      5.000000E-04
           Threshold for RMS of gradient:          5.000000E-04
        ************************************************************
 
     Number of symmetry restricted degrees of freedom:    19
     Constituted by:     0 translational degrees of freedom
                         1 rotational degrees of freedom
                      18 internal degrees of freedom

  *************************************************************************
   ATOM                      CARTESIAN COORDINATES
    1 c      -0.79944449065026     -2.52920424426232      0.00000000000000
    2 c      -2.59754409132048     -0.57582772413596      0.00000000000000
    3 c       1.79745348296526     -1.96162530846576      0.00000000000000
    4 c       2.59007737221576      0.57226288431253      0.00000000000000
    5 c       0.80009060835521      2.53745303260165      0.00000000000000
    6 c      -1.79063288156544      1.95694135994981      0.00000000000000
    7 c       3.76165713755123     -3.86649662474169      0.00000000000000
    8 c       3.62301881225247     -6.35670872200623      0.00000000000000
    9 n      -0.57297336646873     -7.25176451749729      0.00000000000000
   10 c      -1.47199144564579     -5.17670250315247      0.00000000000000
   11 c      -6.19014620395659     -3.90784334874237      0.00000000000000
   12 c      -5.22931286944874     -1.32444232907557      0.00000000000000
   13 c      -7.31658064384170      0.04072803120353      0.00000000000000
   14 n      -5.99372561118104      4.12209174980265      0.00000000000000
   15 c      -3.74716015274162      3.86313323765885      0.00000000000000
   16 c      -0.28921851204273      7.31474554013734      0.00000000000000
   17 c       1.46765573189749      5.19093895381730      0.00000000000000
   18 c       6.47936471599927     -3.40690219139491      0.00000000000000
   19 c       5.21915159838741      1.31356926549353      0.00000000000000
   20 n       6.56669897764955      3.12967276769512      0.00000000000000
   21 c       3.69356183158924      6.31598069080272      0.00000000000000
   22 h       4.74974528163469      8.07526719487497      0.00000000000000
   23 h       7.55021219482949     -3.54152244073860      1.77281243840702
   24 h       7.55021219482949     -3.54152244073860     -1.77281243840702
   25 h       4.61851389229154     -8.15103367283848      0.00000000000000
   26 h      -9.36825917392624      0.07576647796342      0.00000000000000
   27 h      -6.84215449916705     -4.76791434431619     -1.77281243840702
   28 h      -6.84215449916705     -4.76791434431619      1.77281243840702
   29 h      -0.70805769566244      8.30943678505478     -1.77281243840702
   30 h      -0.70805769566244      8.30943678505478      1.77281243840702
  *************************************************************************
   ATOM                      CARTESIAN GRADIENTS  
    1 c      -0.00001775273264     -0.00001143055322      0.00000000000000
    2 c       0.00001558254411      0.00001968502609      0.00000000000000
    3 c      -0.00002483900472      0.00000365236600      0.00000000000000
    4 c       0.00001877551579     -0.00000965904084      0.00000000000000
    5 c       0.00000925646061     -0.00002333739210      0.00000000000000
    6 c      -0.00000102278315      0.00002108959406      0.00000000000000
    7 c      -0.00002639422923      0.00001074801975      0.00000000000000
    8 c      -0.00001474934733     -0.00001466568395      0.00000000000000
    9 n       0.00002644521028      0.00002954976728      0.00000000000000
   10 c       0.00001772960142     -0.00002651204221      0.00000000000000
   11 c      -0.00007564981646      0.00004372886086      0.00000000000000
   12 c       0.00002250517276      0.00001748406315      0.00000000000000
   13 c      -0.00000532618120      0.00002010615145      0.00000000000000
   14 n       0.00001236824400     -0.00003767710755      0.00000000000000
   15 c      -0.00003182490277     -0.00000209826412      0.00000000000000
   16 c       0.00007569521261      0.00004365023242      0.00000000000000
   17 c       0.00000388905647     -0.00002823208290      0.00000000000000
   18 c      -0.00000004539615     -0.00008737909327      0.00000000000000
   19 c       0.00001409530135      0.00002861030633      0.00000000000000
   20 n      -0.00003881345428      0.00000812734027      0.00000000000000
   21 c       0.00002007552853     -0.00000544046750      0.00000000000000
   22 h       0.00006748070305     -0.00003033911147      0.00000000000000
   23 h      -0.00001844448415     -0.00002772208474     -0.00000618063395
   24 h      -0.00001844448415     -0.00002772208474      0.00000618063395
   25 h      -0.00006001479278     -0.00004327044737      0.00000000000000
   26 h      -0.00000746591027      0.00007360955884      0.00000000000000
   27 h      -0.00001478578755      0.00002983443420      0.00000618063395
   28 h      -0.00001478578755      0.00002983443420     -0.00000618063395
   29 h       0.00003323027170     -0.00000211234947      0.00000618063395
   30 h       0.00003323027170     -0.00000211234947     -0.00000618063395
  *************************************************************************

  norm of actual CARTESIAN gradient:  2.46863E-04
  norm of actual INTERNAL  gradient:  1.68545E-04

  ENERGY =    -854.6423125325 a.u.; # of cycle =   67

  Approximate Hessian read from $hessapprox data section

  Hessian updated according to Powell formula
  Number of zero Hessian eigenvalues:   0

   5 first eigenvalues: 
 -0.09577292 -0.00072612  0.02439124  0.12893793  0.15295746

  Eigenvalue of transition vector: -0.09577292

  Largest and next-largest overlaps:   0.99944506  0.02810326

  Old transition vector    1 has overlap 0.99944506 with the new    1

        ***************  Trust radius update info  *****************
                Actual energy change:       -1.27740E-06
                Predicted energy change:    -5.66407E-07
                Actual step radius:          3.34568E-03
                Actual trust radius:         0.003346
                Energy change ratio:         2.255269
                New trust radius:            0.001394
        ************************************************************


  Results of the TRO shift search
  Final shift: -1.07926E-01 residual -6.90713E-18
  Final step radius: 1.39403E-03

  Transforming internal coordinate displacements to Cartesian space
      Iteration   1 residual norm     1.394033E-03
      Iteration   2 residual norm     1.263098E-07
      Iteration   3 residual norm     4.428037E-15
      Transformation converged
      Residual norm:    4.428037E-15 after    3 iterations

      ****************************************************************** 
                          CONVERGENCE INFORMATION

                               Converged?     Value      Criterion
             Energy change         no       0.0000013   0.0000010
             RMS of displacement   yes      0.0003286   0.0005000
             RMS of gradient       yes      0.0000397   0.0005000
             MAX displacement      yes      0.0009126   0.0010000
             MAX gradient          yes      0.0000931   0.0010000
      ****************************************************************** 


    ------------------------------------------------------------------------
         total  cpu-time :   0.05 seconds
         total wall-time :   0.07 seconds
    ------------------------------------------------------------------------

   ****  statpt : all done  ****


    2018-03-20 23:08:29.899 


 statpt (c-17-17.gp.local) : TURBOMOLE V7.2 ( 21454 ) 2 Oct 2017 at 16:43:05
 Copyright (C) 2017 TURBOMOLE GmbH, Karlsruhe


    2018-03-20 23:08:36.265 



                           this is S T A T P T   


                     hessian and coordinate update for
                          stationary point search 

                     by barbara unterreiner, marek sierka,
                           and reinhart ahlrichs

                          quantum chemistry group
                          universitaet  karlsruhe
                                  germany




              +--------------------------------------------------+
              | Atomic coordinate, charge and isotop information |
              +--------------------------------------------------+

                    atomic coordinates            atom    charge  isotop
         -0.79951427   -2.52917052    0.00000000    c      6.000     0
         -2.59756578   -0.57575191    0.00000000    c      6.000     0
          1.79739868   -1.96168200    0.00000000    c      6.000     0
          2.59008306    0.57218559    0.00000000    c      6.000     0
          0.80016711    2.53743391    0.00000000    c      6.000     0
         -1.79056879    1.95698493    0.00000000    c      6.000     0
          3.76158252   -3.86656312    0.00000000    c      6.000     0
          3.62295989   -6.35676046    0.00000000    c      6.000     0
         -0.57356469   -7.25184593    0.00000000    n      7.000     0
         -1.47222380   -5.17662792    0.00000000    c      6.000     0
         -6.18995812   -3.90786618    0.00000000    c      6.000     0
         -5.22933315   -1.32434446    0.00000000    c      6.000     0
         -7.31659599    0.04080493    0.00000000    c      6.000     0
         -5.99350045    4.12264455    0.00000000    n      7.000     0
         -3.74697938    3.86329717    0.00000000    c      6.000     0
         -0.28933233    7.31459407    0.00000000    c      6.000     0
          1.46775063    5.19090758    0.00000000    c      6.000     0
          6.47929045   -3.40672789    0.00000000    c      6.000     0
          5.21920319    1.31333075    0.00000000    c      6.000     0
          6.56706514    3.12920137    0.00000000    n      7.000     0
          3.69363610    6.31595553    0.00000000    c      6.000     0
          4.74937638    8.07549488    0.00000000    h      1.000     0
          7.55016891   -3.54136103    1.77281993    h      1.000     0
          7.55016891   -3.54136103   -1.77281993    h      1.000     0
          4.61889553   -8.15082803    0.00000000    h      1.000     0
         -9.36827190    0.07533315    0.00000000    h      1.000     0
         -6.84199307   -4.76795756   -1.77281993    h      1.000     0
         -6.84199307   -4.76795756    1.77281993    h      1.000     0
         -0.70817584    8.30931859   -1.77281993    h      1.000     0
         -0.70817584    8.30931859    1.77281993    h      1.000     0
 
       center of nuclear mass  :   -0.00000000    0.00000000    0.00000000
       center of nuclear charge:   -0.00000000    0.00000000    0.00000000
 
        ***************  Stationary point options ******************
        ************************************************************
           Maximum allowed trust radius:           3.000000E-01
           Minimum allowed trust radius:           1.000000E-03
           Initial trust radius:                   1.500000E-01
           GDIIS used if gradient norm <           1.000000E-02
           Number of previous steps for GDIIS:       5
           Hessian update method:                  Powell
           Initial index of transition vector:       1
                        *** Convergence criteria ***                
           Threshold for energy change:            1.000000E-06
           Threshold for max displacement element: 1.000000E-03
           Threshold for max gradient element :    1.000000E-03
           Threshold for RMS of displacement:      5.000000E-04
           Threshold for RMS of gradient:          5.000000E-04
        ************************************************************
 
     Number of symmetry restricted degrees of freedom:    19
     Constituted by:     0 translational degrees of freedom
                         1 rotational degrees of freedom
                      18 internal degrees of freedom

  *************************************************************************
   ATOM                      CARTESIAN COORDINATES
    1 c      -0.79951426769343     -2.52917052254161      0.00000000000000
    2 c      -2.59756578300755     -0.57575191471727      0.00000000000000
    3 c       1.79739867592636     -1.96168199872715      0.00000000000000
    4 c       2.59008305687055      0.57218559476019      0.00000000000000
    5 c       0.80016710708117      2.53743391344436      0.00000000000000
    6 c      -1.79056878917706      1.95698492778144      0.00000000000000
    7 c       3.76158251964961     -3.86656311987763      0.00000000000000
    8 c       3.62295988740575     -6.35676046182966      0.00000000000000
    9 n      -0.57356468705529     -7.25184592547968      0.00000000000000
   10 c      -1.47222380441934     -5.17662791937026      0.00000000000000
   11 c      -6.18995812016288     -3.90786618056010      0.00000000000000
   12 c      -5.22933314697489     -1.32434446050922      0.00000000000000
   13 c      -7.31659598941982      0.04080493152942      0.00000000000000
   14 n      -5.99350045226859      4.12264455244359      0.00000000000000
   15 c      -3.74697938190474      3.86329717436843      0.00000000000000
   16 c      -0.28933232687376      7.31459407070281      0.00000000000000
   17 c       1.46775062732526      5.19090758038689      0.00000000000000
   18 c       6.47929044703658     -3.40672789014265      0.00000000000000
   19 c       5.21920318632408      1.31333074500174      0.00000000000000
   20 n       6.56706513932365      3.12920137303658      0.00000000000000
   21 c       3.69363610201408      6.31595553030026      0.00000000000000
   22 h       4.74937637528905      8.07549488124490      0.00000000000000
   23 h       7.55016890815089     -3.54136102661175      1.77281993420612
   24 h       7.55016890815089     -3.54136102661175     -1.77281993420612
   25 h       4.61889552764482     -8.15082803375651      0.00000000000000
   26 h      -9.36827190293388      0.07533315251151      0.00000000000000
   27 h      -6.84199306709337     -4.76795756401630     -1.77281993420612
   28 h      -6.84199306709337     -4.76795756401630      1.77281993420612
   29 h      -0.70817584105752      8.30931859062804     -1.77281993420612
   30 h      -0.70817584105752      8.30931859062804      1.77281993420612
  *************************************************************************
   ATOM                      CARTESIAN GRADIENTS  
    1 c      -0.00001548953911     -0.00000581874284      0.00000000000000
    2 c       0.00000881844649      0.00001797745726      0.00000000000000
    3 c      -0.00001997815792     -0.00000135172994      0.00000000000000
    4 c       0.00001278394868     -0.00001050496293      0.00000000000000
    5 c       0.00001115971142     -0.00001662572732      0.00000000000000
    6 c       0.00000270559043      0.00001632370578      0.00000000000000
    7 c      -0.00003757884366     -0.00000926461995      0.00000000000000
    8 c      -0.00001902945966     -0.00001111963352      0.00000000000000
    9 n       0.00002465357719      0.00001719727330      0.00000000000000
   10 c       0.00002007817840     -0.00001598981423      0.00000000000000
   11 c      -0.00007549200152      0.00004074198820      0.00000000000000
   12 c       0.00001076602559      0.00003717654323      0.00000000000000
   13 c      -0.00000011515528      0.00002203981225      0.00000000000000
   14 n       0.00000256648695     -0.00002994926079      0.00000000000000
   15 c      -0.00002388667453     -0.00000939330544      0.00000000000000
   16 c       0.00007302959754      0.00004500699700      0.00000000000000
   17 c       0.00002681281806     -0.00002791192328      0.00000000000000
   18 c       0.00000246240398     -0.00008574898519      0.00000000000000
   19 c       0.00000380849613      0.00002538311968      0.00000000000000
   20 n      -0.00002722006415      0.00001275198749      0.00000000000000
   21 c       0.00001914461494     -0.00001092017873      0.00000000000000
   22 h       0.00005510298579     -0.00003628787718      0.00000000000000
   23 h      -0.00001370250822     -0.00002713541383      0.00000070796658
   24 h      -0.00001370250822     -0.00002713541383     -0.00000070796658
   25 h      -0.00005897771638     -0.00002957664693      0.00000000000000
   26 h       0.00000387473059      0.00006586452411      0.00000000000000
   27 h      -0.00001664870361      0.00002543442713     -0.00000070796658
   28 h      -0.00001664870361      0.00002543442713      0.00000070796658
   29 h       0.00003035121183      0.00000170098670     -0.00000070796658
   30 h       0.00003035121183      0.00000170098670      0.00000070796658
  *************************************************************************

  norm of actual CARTESIAN gradient:  2.30968E-04
  norm of actual INTERNAL  gradient:  1.46454E-04

  ENERGY =    -854.6423129786 a.u.; # of cycle =   68

  Approximate Hessian read from $hessapprox data section

  Hessian updated according to Powell formula
  Number of zero Hessian eigenvalues:   0

   5 first eigenvalues: 
 -0.09541048  0.00408960  0.02234594  0.12893871  0.15304070

  Eigenvalue of transition vector: -0.09541048

  Largest and next-largest overlaps:   0.99952043  0.02860447

  Old transition vector    1 has overlap 0.99952043 with the new    1

        ***************  Trust radius update info  *****************
                Actual energy change:       -4.46100E-07
                Predicted energy change:    -2.14266E-07
                Actual step radius:          1.39403E-03
                Actual trust radius:         0.001394
                Energy change ratio:         2.081989
                New trust radius:            0.001394
        ************************************************************


  Results of the TRO shift search
  Final shift: -9.56521E-02 residual -1.13502E-19
  Final step radius: 1.39403E-03

  Transforming internal coordinate displacements to Cartesian space
      Iteration   1 residual norm     1.394033E-03
      Iteration   2 residual norm     1.034006E-07
      Iteration   3 residual norm     4.281944E-15
      Transformation converged
      Residual norm:    4.281944E-15 after    3 iterations

      ****************************************************************** 
                          CONVERGENCE INFORMATION

                               Converged?     Value      Criterion
             Energy change         yes      0.0000004   0.0000010
             RMS of displacement   yes      0.0003286   0.0005000
             RMS of gradient       yes      0.0000345   0.0005000
             MAX displacement      yes      0.0009560   0.0010000
             MAX gradient          yes      0.0000903   0.0010000
      ****************************************************************** 


    ------------------------------------------------------------------------
         total  cpu-time :   0.05 seconds
         total wall-time :   0.06 seconds
    ------------------------------------------------------------------------

   ****  statpt : all done  ****


    2018-03-20 23:08:36.317 

