
 egrad (nile) : TURBOMOLE V7.2 ( 21285 ) 30 Jun 2017 at 11:51:10
 Copyright (C) 2017 TURBOMOLE GmbH, Karlsruhe


    2018-02-08 12:31:37.588 




                               e g r a d

                             TURBOMOLE GmbH


             integral direct evaluation of excited state
                     and polarizability gradients
                 and first-order nonadiabatic couplings



          references (see also programs escf, dscf and ridft) 

          review 
          F. Furche and D. Rappoport,  
          "Density functional methods for excited states: 
          equilibrium structure and electronic spectra",
          ch. III of "Computational Photochemistry", ed. by 
          M. Olivucci, vol. 16 of "Theoretical and Computational 
          Chemistry", Elsevier, Amsterdam, 2005.

          nonorthonormal Krylov space methods 
          F. Furche, B. T. Krull, B. D. Nguyen, J. Kwon, 
          J. Chem. Phys. 144 (2016), 174105.

          RI-J method 
          D. Rappoport and F. Furche, 
          J. Chem. Phys. 122 (2005), 064105.

          Lagrangian method, implementation, benchmarks 
          F. Furche and R. Ahlrichs,
          J. Chem. Phys. 117 (2002), 7433;
          J. Chem. Phys. 121 (2004), 12772 (E).

          Polarizability derivatives, Raman intensities 
          D. Rappoport and F. Furche, 
          J. Chem. Phys. 126 (2007), 201104.

          First-order nonadiabatic couplings 
          R. Send and F. Furche, 
          J. Chem. Phys. 132 (2010), 044107.
                                     




              +--------------------------------------------------+
              | Atomic coordinate, charge and isotop information |
              +--------------------------------------------------+

                    atomic coordinates            atom    charge  isotop
        -12.86871272    6.54900276    0.00652914    o      8.000     0
        -10.82297687    5.43394448    0.00289376    c      6.000     0
         -8.37339773    6.69472945    0.00865491    c      6.000     0
         -6.14212000    5.36176898    0.00494541    c      6.000     0
         -6.10465984    2.63854137   -0.00517653    c      6.000     0
         -8.45547573    1.32930428   -0.01158976    c      6.000     0
        -10.66360993    2.65843903   -0.00775436    c      6.000     0
         -3.04883871    6.46477488    0.01109665    s     16.000     0
         -1.99990584    3.28770023   -0.00024157    c      6.000     0
         -3.81330676    1.58056013   -0.00751086    n      7.000     0
          0.60946903    2.68632560   -0.00121938    c      6.000     0
          1.44125726   -0.58038206   -0.01278789    s     16.000     0
          2.43472654    4.34194238    0.00589154    n      7.000     0
          4.79551045    3.26693629    0.00377817    c      6.000     0
          4.71581387    0.34094062   -0.00691310    c      6.000     0
          5.70950423   -0.37808884    1.67777665    h      1.000     0
          5.71210951   -0.36584099   -1.69524410    h      1.000     0
          6.78956355    4.38666885    0.00935901    o      8.000     0
         -8.35015946   10.25892960    0.02149164    br    35.000     0
         -8.42605142   -0.73858123   -0.01947541    h      1.000     0
        -12.49414422    1.69446851   -0.01267993    h      1.000     0
 
       center of nuclear mass  :   -4.12780271    5.09258871    0.00515867
       center of nuclear charge:   -3.97768221    4.87304007    0.00444447

              +--------------------------------------------------+
              |               basis set information              |
              +--------------------------------------------------+

              we will work with the 1s 3p 5d 7f 9g ... basis set
              ...i.e. with spherical basis functions...

   type   atoms  prim   cont   basis
   ---------------------------------------------------------------------------
    o        2     24     14   def2-SV(P)   [3s2p1d|7s4p1d]
    c       10     24     14   def2-SV(P)   [3s2p1d|7s4p1d]
    s        2     36     18   def2-SV(P)   [4s3p1d|10s7p1d]
    n        2     24     14   def2-SV(P)   [3s2p1d|7s4p1d]
    h        4      4      2   def2-SV(P)   [2s|4s]
    br       1     74     32   def2-SV(P)   [5s4p3d|14s10p6d]
   ---------------------------------------------------------------------------
   total:   21    498    272
   ---------------------------------------------------------------------------

   total number of primitive shells          :   88
   total number of contracted shells         :  120
   total number of cartesian basis functions :  291
   total number of SCF-basis functions       :  272


 residuum convergence criterium   :  0.10E-04


 integral neglect threshold       :  0.11E-10
 integral storage threshold THIZE :  0.10E-04
 integral storage threshold THIME :         5

 
             FOUND RI-J FLAG !
 
  
 AUXILIARY BASIS SET information:

              we will work with the 1s 3p 5d 7f 9g ... basis set
              ...i.e. with spherical basis functions...

   type   atoms  prim   cont   basis
   ---------------------------------------------------------------------------
    o        2     70     49   def2-SV(P)   [6s4p3d1f1g|12s5p4d2f1g]
    c       10     70     49   def2-SV(P)   [6s4p3d1f1g|12s5p4d2f1g]
    s        2     77     51   def2-SV(P)   [8s4p3d1f1g|14s5p5d2f1g]
    n        2     70     49   def2-SV(P)   [6s4p3d1f1g|12s5p4d2f1g]
    h        4     16     11   def2-SV(P)   [3s1p1d|5s2p1d]
    br       1     89     58   def2-SV(P)   [8s4p3d2f1g|19s5p5d3f1g]
   ---------------------------------------------------------------------------
   total:   21   1287    890
   ---------------------------------------------------------------------------

   total number of primitive shells          :  140
   total number of contracted shells         :  282
   total number of cartesian basis functions : 1101
   total number of SCF-basis functions       :  890

 RPA SINGLET-EXCITATION-CALCULATION 
 
             FOUND DFT-FLAG !
 

 symmetry group of the molecule :   c1 

 the group has the following generators :
   c1(z)

    1 symmetry operations found

 there are 1 real representations :   a   

 maximum number of shells which are related by symmetry :  1

 IRREP of excited state :   a   
 

 determining totally symmetric integral contributions 
    - equivalent to irreducible tensor elements - 
 which can be formed within each triple of representations :

             representation triple      contributions

              a     a     a               1

    mo occupation :
   irrep   mo's   occupied
    a      272       81
 
 number of basis functions   :                    272
 number of occupied orbitals :                     81
 
  
           ------------------
           density functional
           ------------------
 PBE0 hybrid functional
 exchange:    3/4 (LDA+PBE) + 1/4 HF
 correlation: LDA (PW) + PBE

 iterations will be done with small grid
  
 spherical integration : Lebedev's spherical grid
 spherical gridsize    :                     5
    i.e. gridpoints    :                   590
 value for diffuse not defined
 radial integration    : Chebyshev 2nd kind (scaling 3)
 radial gridsize       :                     8
 integration cells     :                    21
 partition function    : becke
 partition sharpness   :                     3
  
  
           ----------------------
               RI - INFORMATION
           ----------------------

 biggest AO integral is expected to be    21.668154127

 Threshold for integral neglect (rithr2):   0.11E-10
 Threshold for integral neglect (rithr1):   0.11E-10

 Contributions to RI integral batches: 
  neglected integral batches:                  2101
  direct contribution:                            0
  memory contribution:                  5159
 Core memory available (ricore)            5000 MiB
 Core memory needed for (P|Q) and Cholesky 7 MiB
 Core memory used for integrals            250 MiB
  
 ****************************************
 Memory allocated for RIDFT 256 MiB
 ****************************************
                                            
  MOs are in ASCII format !


 reading orbital data $scfmo  from file mos
 orbital characterization : scfconv=9
 preparing numerical integration ....
          Overall gridpoints after grid construction =        122153

 Calculating ground state density on molecular grid

 Integral of ground state density: N =   162.0000414558579    



 number of non-frozen orbitals          :   272
 number of non-frozen occupied orbitals :    81



                        -------------------
                         excitation vector 
                        -------------------


 dimension of super-tensorspace: 2

          IRREP   tensor space dimension   number of roots

           a             15471                   7

 maximum number of Davidson iterations set to   50


 machine precision: 2.22D-16


 logfile sing_a    will be constructed


                       Nonorthonormal Krylov Space Iteration


 total number of roots to be determined:   7


 maximum core memory set to  5000 MB,
 corresponding to     3796 vectors in CAO basis


 maximum number of simultaneously treated vectors (including degeneracy):       14


 Iteration IRREP Converged      Max. Euclidean
                 roots          residual norm

    1       a        0        1.489245221857271D-01
 
    2       a        0        4.156436164530300D-02
 
    3       a        0        3.705334181145683D-02
 
    4       a        0        2.706614780019142D-02
 
    5       a        0        1.305137373506200D-02
 
    6       a        0        4.845050083947878D-03
 
    7       a        1        1.763630115751865D-03
 
    8       a        3        6.928845510318695D-04
 
    9       a        3        2.453222099107350D-04
 
   10       a        5        7.434062191363878D-05
 
   11       a        6        2.089701277001864D-05
 
   12       a        7        9.431174158821701D-06
 

 converged!


 Switching to fine grid

 preparing numerical integration ....
          Overall gridpoints after grid construction =        372241

 Calculating ground state density on molecular grid

 Integral of ground state density: N =   162.0000032953506    



 Iteration IRREP Converged      Max. Euclidean
                 roots          residual norm

   13       a        6        1.059759185439132D-05
 

 NOTE: Residual norms are larger than 1.00D-05 due to mgrid option!

 Eigenpairs written on logfile sing_a   



 IRREP   Vector     Eigenvalue           Euclidean residual norm

  a         1    9.593718999288976D-02    9.418990778105729D-06
            2    1.123039419145530D-01    5.652436284037880D-06
            3    1.330416495390779D-01    7.430978656983383D-06
            4    1.425520239000681D-01    4.940847667506161D-06
            5    1.520988084788485D-01    9.221057463039620D-06
            6    1.557281178638544D-01    7.703492483790196D-06
            7    1.582227415180866D-01    1.059759185439132D-05
 




                    Selection rules for point group c1  


 Subduction with respect to c1  :

    Polar vector representation: a                           

    Axial vector representation: a                           

    Symmetric second rank tensor representation: a                           




                            Ground state


 Total energy:                           -4011.732457602000    

 Charge:

               elec          nuc         total

          -162.000000   161.000000    -1.000000


 Electric dipole moment:

               elec          nuc         total   

    x      645.064923  -640.406837     4.658086    Norm:              7.590298
    y     -790.552346   784.559451    -5.992895
    z       -0.724114     0.715560    -0.008554    Norm / debye:     19.292760


 Electric quadrupole moment:

               elec          nuc         total   

   xx    -7907.334004  7733.917522  -173.416482
   yy    -6028.503110  5894.124567  -134.378543    1/3*trace:      -133.522473
   zz      -98.486509     5.714115   -92.772393
   xy     4929.862495 -4897.275349    32.587146
   xz        6.407705    -6.381525     0.026181    Anisotropy:       89.805532
   yz      -10.136856    10.067128    -0.069728



 ==============================================================================

                              I R R E P   a   

 ==============================================================================


 Excitation is electric dipole allowed

 Excitation is magnetic dipole allowed

 Excitation is electric quadrupole allowed




                         1 singlet a excitation


 Total energy:                           -4011.636520412007    

 Excitation energy:                      0.9593718999288976E-01

 Excitation energy / eV:                  2.610584884333083    

 Excitation energy / nm:                  474.9289890956454    

 Excitation energy / cm^(-1):             21055.77934408522    


 Oscillator strength:

    velocity representation:             0.4776794563491047    

    length representation:               0.5504240012278381    

    mixed representation:                0.5127610213906756    


 Rotatory strength:

    velocity representation:            -0.1435488467286954E-06

    velocity rep. / 10^(-40)erg*cm^3:   -0.9273946888236290E-02

    length representation:              -0.2350664889949253E-07

    length rep. / 10^(-40)erg*cm^3:     -0.1518642736477894E-02


 Dominant contributions:

      occ. orbital   energy / eV   virt. orbital     energy / eV   |coeff.|^2*100
       81 a              -2.10          82 a               0.64       93.3
 

 Change of electron number:

             0.000000


 Electric transition dipole moment (velocity rep.):

    x       -2.684793        Norm:                  2.732879
    y        0.510408
    z        0.000327        Norm / debye:          6.946338


 Electric transition dipole moment (length rep.):

    x       -2.880322        Norm:                  2.933599
    y        0.556551
    z        0.000404        Norm / debye:          7.456522


 Magnetic transition dipole moment / i:

    x        0.000001        Norm:                  0.001752
    y        0.000004
    z        0.001752        Norm / Bohr mag.:      0.480207


 Electric quadrupole transition moment:

   xx       21.372324
   yy        4.969994        1/3*trace:             8.740333
   zz       -0.121318
   xy      -12.856457
   xz       -0.003228        Anisotropy:           29.569119
   yz        0.005277




                         2 singlet a excitation


 Total energy:                           -4011.620153660086    

 Excitation energy:                      0.1123039419145530    

 Excitation energy / eV:                  3.055947054889569    

 Excitation energy / nm:                  405.7146337273460    

 Excitation energy / cm^(-1):             24647.86617785076    


 Oscillator strength:

    velocity representation:             0.4798669131011026E-04

    length representation:               0.6136560726607318E-05

    mixed representation:                0.1715927177081097E-04


 Rotatory strength:

    velocity representation:            -0.2056320563726060E-06

    velocity rep. / 10^(-40)erg*cm^3:   -0.1328482124919186E-01

    length representation:              -0.1966912545415315E-06

    length rep. / 10^(-40)erg*cm^3:     -0.1270720238837063E-01


 Dominant contributions:

      occ. orbital   energy / eV   virt. orbital     energy / eV   |coeff.|^2*100
       80 a              -3.43          82 a               0.64       96.6
 

 Change of electron number:

             0.000000


 Electric transition dipole moment (velocity rep.):

    x       -0.000140        Norm:                  0.025317
    y        0.000097
    z       -0.025316        Norm / debye:          0.064349


 Electric transition dipole moment (length rep.):

    x       -0.000145        Norm:                  0.009053
    y        0.000028
    z       -0.009052        Norm / debye:          0.023012


 Magnetic transition dipole moment / i:

    x        0.001356        Norm:                  0.001614
    y       -0.000875
    z       -0.000003        Norm / Bohr mag.:      0.442341


 Electric quadrupole transition moment:

   xx        0.000789
   yy       -0.000607        1/3*trace:             0.000312
   zz        0.000752
   xy       -0.000765
   xz        0.158927        Anisotropy:            0.287900
   yz        0.048679




                         3 singlet a excitation


 Total energy:                           -4011.599415952461    

 Excitation energy:                      0.1330416495390779    

 Excitation energy / eV:                  3.620249032718146    

 Excitation energy / nm:                  342.4743515872962    

 Excitation energy / cm^(-1):             29199.26690030794    


 Oscillator strength:

    velocity representation:             0.2956934889593772    

    length representation:               0.3256937243273232    

    mixed representation:                0.3103235278949104    


 Rotatory strength:

    velocity representation:             0.8419844827536001E-06

    velocity rep. / 10^(-40)erg*cm^3:    0.5439625292520770E-01

    length representation:               0.1022656608625106E-05

    length rep. / 10^(-40)erg*cm^3:      0.6606854244686322E-01


 Dominant contributions:

      occ. orbital   energy / eV   virt. orbital     energy / eV   |coeff.|^2*100
       79 a              -3.68          82 a               0.64       93.4
 

 Change of electron number:

            -0.000000


 Electric transition dipole moment (velocity rep.):

    x        1.770274        Norm:                  1.825882
    y       -0.447184
    z       -0.000653        Norm / debye:          4.640964


 Electric transition dipole moment (length rep.):

    x        1.854541        Norm:                  1.916269
    y       -0.482455
    z       -0.000737        Norm / debye:          4.870707


 Magnetic transition dipole moment / i:

    x       -0.000002        Norm:                  0.000383
    y       -0.000012
    z        0.000382        Norm / Bohr mag.:      0.104835


 Electric quadrupole transition moment:

   xx      -11.458229
   yy       -3.286534        1/3*trace:            -4.925812
   zz       -0.032673
   xy        7.778684
   xz        0.001679        Anisotropy:           16.896081
   yz       -0.002229




                         4 singlet a excitation


 Total energy:                           -4011.589905578100    

 Excitation energy:                      0.1425520239000681    

 Excitation energy / eV:                  3.879039597180061    

 Excitation energy / nm:                  319.6261365741174    

 Excitation energy / cm^(-1):             31286.55280100501    


 Oscillator strength:

    velocity representation:             0.4363339729194110E-03

    length representation:               0.2344621709850647E-03

    mixed representation:                0.3198496345182193E-03


 Rotatory strength:

    velocity representation:             0.3506742402654488E-07

    velocity rep. / 10^(-40)erg*cm^3:    0.2265524491075052E-02

    length representation:               0.4200254988673586E-07

    length rep. / 10^(-40)erg*cm^3:      0.2713567024026927E-02


 Dominant contributions:

      occ. orbital   energy / eV   virt. orbital     energy / eV   |coeff.|^2*100
       77 a              -4.54          82 a               0.64       94.1
 

 Change of electron number:

             0.000000


 Electric transition dipole moment (velocity rep.):

    x       -0.000060        Norm:                  0.067759
    y       -0.000304
    z        0.067759        Norm / debye:          0.172228


 Electric transition dipole moment (length rep.):

    x       -0.000053        Norm:                  0.049670
    y       -0.000244
    z        0.049670        Norm / debye:          0.126250


 Magnetic transition dipole moment / i:

    x       -0.001122        Norm:                  0.001161
    y       -0.000297
    z       -0.000002        Norm / Bohr mag.:      0.318229


 Electric quadrupole transition moment:

   xx       -0.000548
   yy       -0.000484        1/3*trace:            -0.000462
   zz       -0.000354
   xy       -0.001473
   xz        0.306101        Anisotropy:            0.535406
   yz        0.043047




                         5 singlet a excitation


 Total energy:                           -4011.580358793521    

 Excitation energy:                      0.1520988084788485    

 Excitation energy / eV:                  4.138820934502901    

 Excitation energy / nm:                  299.5641656610101    

 Excitation energy / cm^(-1):             33381.82982080529    


 Oscillator strength:

    velocity representation:             0.3834002822634222E-01

    length representation:               0.4377033640441508E-01

    mixed representation:                0.4091450546275650E-01


 Rotatory strength:

    velocity representation:             0.2704769212059124E-06

    velocity rep. / 10^(-40)erg*cm^3:    0.1747411183663572E-01

    length representation:               0.5238194891291218E-06

    length rep. / 10^(-40)erg*cm^3:      0.3384126192520259E-01


 Dominant contributions:

      occ. orbital   energy / eV   virt. orbital     energy / eV   |coeff.|^2*100
       78 a              -4.27          82 a               0.64       96.6
 

 Change of electron number:

            -0.000000


 Electric transition dipole moment (velocity rep.):

    x        0.355066        Norm:                  0.614906
    y        0.502028
    z        0.002247        Norm / debye:          1.562948


 Electric transition dipole moment (length rep.):

    x        0.405613        Norm:                  0.657011
    y        0.516853
    z        0.002224        Norm / debye:          1.669968


 Magnetic transition dipole moment / i:

    x        0.000005        Norm:                  0.000709
    y        0.000001
    z       -0.000709        Norm / Bohr mag.:      0.194309


 Electric quadrupole transition moment:

   xx        1.155069
   yy        1.167842        1/3*trace:             0.672772
   zz       -0.304594
   xy        3.830949
   xz        0.010528        Anisotropy:            6.795460
   yz        0.002049




                         6 singlet a excitation


 Total energy:                           -4011.576729484136    

 Excitation energy:                      0.1557281178638544    

 Excitation energy / eV:                  4.237579510001797    

 Excitation energy / nm:                  292.5826965932629    

 Excitation energy / cm^(-1):             34178.37115777552    


 Oscillator strength:

    velocity representation:             0.1839788219542740E-02

    length representation:               0.3837215984957452E-03

    mixed representation:                0.8402061801016948E-03


 Rotatory strength:

    velocity representation:             0.1060719340835159E-06

    velocity rep. / 10^(-40)erg*cm^3:    0.6852757827321394E-02

    length representation:               0.1382185359387375E-06

    length rep. / 10^(-40)erg*cm^3:      0.8929583138262802E-02


 Dominant contributions:

      occ. orbital   energy / eV   virt. orbital     energy / eV   |coeff.|^2*100
       76 a              -4.71          82 a               0.64       71.5
       74 a              -5.13          82 a               0.64       19.2
 

 Change of electron number:

             0.000000


 Electric transition dipole moment (velocity rep.):

    x       -0.000329        Norm:                  0.133121
    y       -0.000990
    z        0.133117        Norm / debye:          0.338362


 Electric transition dipole moment (length rep.):

    x       -0.000330        Norm:                  0.060795
    y       -0.000722
    z        0.060790        Norm / debye:          0.154527


 Magnetic transition dipole moment / i:

    x       -0.000537        Norm:                  0.000537
    y        0.000025
    z       -0.000000        Norm / Bohr mag.:      0.147254


 Electric quadrupole transition moment:

   xx       -0.000445
   yy       -0.001137        1/3*trace:            -0.000864
   zz       -0.001011
   xy       -0.003160
   xz       -0.168784        Anisotropy:            0.295454
   yz        0.024484




                         7 singlet a excitation


 Total energy:                           -4011.574234860482    

 Excitation energy:                      0.1582227415180866    

 Excitation energy / eV:                  4.305461702552161    

 Excitation energy / nm:                  287.9696826311887    

 Excitation energy / cm^(-1):             34725.87776302361    


 Oscillator strength:

    velocity representation:             0.1560503081113290E-03

    length representation:               0.3992456971253598E-04

    mixed representation:                0.6401750704318125E-04


 Rotatory strength:

    velocity representation:            -0.4126499155451777E-05

    velocity rep. / 10^(-40)erg*cm^3:   -0.2665917203385077    

    length representation:              -0.4401819233231590E-05

    length rep. / 10^(-40)erg*cm^3:     -0.2843787234164271    


 Dominant contributions:

      occ. orbital   energy / eV   virt. orbital     energy / eV   |coeff.|^2*100
       81 a              -2.10          85 a               3.45       97.6
 

 Change of electron number:

            -0.000000


 Electric transition dipole moment (velocity rep.):

    x       -0.002692        Norm:                  0.038463
    y        0.007371
    z       -0.037654        Norm / debye:          0.097764


 Electric transition dipole moment (length rep.):

    x       -0.002741        Norm:                  0.019455
    y        0.007433
    z        0.017769        Norm / debye:          0.049450


 Magnetic transition dipole moment / i:

    x       -0.000053        Norm:                  0.000604
    y       -0.000601
    z       -0.000004        Norm / Bohr mag.:      0.165498


 Electric quadrupole transition moment:

   xx       -0.014724
   yy        0.082753        1/3*trace:             0.022736
   zz        0.000180
   xy       -0.074203
   xz       -0.381770        Anisotropy:            0.741846
   yz        0.171562
 

 Excited state no.    1 chosen for optimization


                       ----------------------
                        CPKS right-hand side 
                       ----------------------


          IRREP   tensor space dimension   number of roots

           a             15471                   1

                          ----------------
                           CPKS equations 
                          ----------------


 logfile dipl_a    will be constructed

 Switching to coarse grid

 preparing numerical integration ....
          Overall gridpoints after grid construction =        122153


                       Nonorthonormal Krylov Space Iteration


 total number of roots to be determined:   1


 maximum core memory set to  5000 MB,
 corresponding to     7544 vectors in CAO basis


 maximum number of simultaneously treated vectors (including degeneracy):        1


 Iteration IRREP Converged      Max. Euclidean
                 roots          residual norm

    1       a        0        9.369700844861638D-02
 
    2       a        0        4.535091094531729D-02
 
    3       a        0        2.382663495225167D-02
 
    4       a        0        2.100140614103231D-02
 
    5       a        0        1.087863624257205D-02
 
    6       a        0        1.347714554476962D-02
 
    7       a        0        5.599880028943318D-02
 
    8       a        0        5.614856329830869D-03
 
    9       a        0        5.684455447905323D-03
 
   10       a        0        1.134759699912526D-02
 
   11       a        0        6.901830619013521D-03
 
   12       a        0        4.388233768941483D-03
 
   13       a        0        6.267621723220847D-02
 
   14       a        0        3.549266375470903D-03
 
   15       a        0        3.000602924758561D-03
 
   16       a        0        6.856171961383532D-03
 
   17       a        0        4.457373884982925D-03
 
   18       a        0        2.571722723190750D-03
 
   19       a        0        5.100075339343529D-03
 
   20       a        0        1.131370541768016D-02
 
   21       a        0        3.336478250140877D-03
 
   22       a        0        3.111186175197576D-03
 
   23       a        0        5.113399677470223D-03
 
   24       a        0        3.534417528898102D-02
 
   25       a        0        8.219045350729816D-03
 
   26       a        0        3.895053510328216D-03
 
   27       a        0        6.483113801539415D-03
 
   28       a        0        3.648375584685339D-02
 
   29       a        0        6.250422809123407D-03
 
   30       a        0        4.473792152686174D-03
 
   31       a        0        9.004841202274159D-02
 
   32       a        0        3.813247709684801D-03
 
   33       a        0        3.444654138080071D-03
 
   34       a        0        7.645281711757364D-03
 
   35       a        0        1.293595413478792D-02
 
   36       a        0        3.612371434138425D-03
 
   37       a        0        4.467162701476966D-03
 
   38       a        0        6.052359500154353D-03
 
   39       a        0        1.277886120454974D-02
 
   40       a        0        2.852678200066015D-02
 
   41       a        0        5.498313520396143D-03
 
   42       a        0        3.692599755784970D-03
 
   43       a        0        6.687931165756518D-03
 
   44       a        0        1.705058957633291D-02
 
   45       a        0        4.423363072959248D-03
 
   46       a        0        4.510604789268991D-03
 
   47       a        0        1.600746217667358D-02
 
   48       a        0        2.806077304492889D-03
 
   49       a        0        3.262630969520025D-03
 
   50       a        0        9.031203455345263D-03
 


 Warning! No convergence within  50 iterations.
 Unless you have specified a very low $escfiterlimit/$forceiterlimit, 
 this is a reason to worry!



 IRREP   Vector     Frequency            Euclidean residual norm

  a         1    0.000000000000000D+00    9.031203455345263D-03
 
 
 twoint has not been removed


    ------------------------------------------------------------------------
         total  cpu-time : 19 minutes and 28 seconds
         total wall-time : 19 minutes and 29 seconds
    ------------------------------------------------------------------------

   ****  egrad : all done  ****


    2018-02-08 12:51:06.080 

 egrad ended normally
