 operating system is UNIX !

 escf (nile) : TURBOMOLE V7.2 ( 21287 ) 3 Jul 2017 at 09:33:16
 Copyright (C) 2017 TURBOMOLE GmbH, Karlsruhe


    2018-02-08 13:53:24.737 




                                e s c f

                             TURBOMOLE GmbH


          integral direct evaluation of 

                    * excitation energies and transition moments 
                    * dynamic response properties 
                    * stabilities



          references (see also programs dscf and ridft) 

          implementation and benchmarks (review) 
          F. Furche and D. Rappoport,  
          "Density functional methods for excited states: 
          equilibrium structure and electronic spectra",
          ch. III of "Computational Photochemistry", ed. by 
          M. Olivucci, vol. 16 of "Theoretical and Computational 
          Chemistry", Elsevier, Amsterdam, 2005.

          nonorthonormal Krylov space methods 
          F. Furche, B. T. Krull, B. D. Nguyen, J. Kwon, 
          J. Chem. Phys. 144 (2016), 174105.

          two-component GW quasi particle energies 
          M. Kuehn and F. Weigend, 
          J. Chem. Theory Comput. 11 (2015), 969.

          two-component TDDFT with spin-orbit coupling 
          M. Kuehn and F. Weigend, 
          J. Chem. Theory Comput. 9 (2013), 5341.
          M. Kuehn and F. Weigend, 
          J. Chem. Phys. 142 (2015), 034116.

          GW quasi particle energies
          M. J. van Setten, F. Weigend, and F. Evers,
          J. Chem. Theory Comput. 9 (2013), 232.

          current-density dependent meta-GGA Linear Response
          J. E. Bates and F. Furche, 
          J. Chem. Phys. 137 (2012), 164105.

          spin-flip method 
          M. Kuehn and F. Weigend, 
          Chem. Phys. Chem. 12 (2011), 3331.

          RI-J method 
          R. Bauernschmitt, M. Haeser, O. Treutler, and R. Ahlrichs,
          Chem. Phys. Lett. 264 (1997), 573.

          density functional implementation               
          R. Bauernschmitt and R. Ahlrichs,
          Chem. Phys. Lett. 256 (1996), 454.
          R. Bauernschmitt and R. Ahlrichs,
          J. Chem. Phys. 104 (1996), 9047.

          UHF extension (RPA and CIS)
          C. Ochsenfeld, J. Gauss, and R. Ahlrichs, 
          J. Chem. Phys. 103 (1995), 7401.

          integral direct algorithm                 
          H. Weiss, R. Ahlrichs, and M. Haeser, 
          J. Chem. Phys. 99 (1993), 1262.
                                     




              +--------------------------------------------------+
              | Atomic coordinate, charge and isotop information |
              +--------------------------------------------------+

                    atomic coordinates            atom    charge  isotop
        -12.86860699    6.54904285    0.00578649    o      8.000     0
        -10.82280349    5.43392469    0.00263887    c      6.000     0
         -8.37333980    6.69459339    0.00869183    c      6.000     0
         -6.14204951    5.36160067    0.00496073    c      6.000     0
         -6.10466635    2.63837484   -0.00516306    c      6.000     0
         -8.45558798    1.32922300   -0.01143802    c      6.000     0
        -10.66372706    2.65851552   -0.00774360    c      6.000     0
         -3.04890778    6.46488814    0.01075951    s     16.000     0
         -1.99983719    3.28770994   -0.00029763    c      6.000     0
         -3.81323739    1.58052541   -0.00767599    n      7.000     0
          0.60950557    2.68648200   -0.00090345    c      6.000     0
          1.44119814   -0.58048030   -0.01242213    s     16.000     0
          2.43481695    4.34201474    0.00633099    n      7.000     0
          4.79551850    3.26686903    0.00384716    c      6.000     0
          4.71562679    0.34090497   -0.00701867    c      6.000     0
          5.70990495   -0.37803623    1.67752786    h      1.000     0
          5.71196913   -0.36557005   -1.69561504    h      1.000     0
          6.78957388    4.38663196    0.00925496    o      8.000     0
         -8.35015518   10.25875605    0.02201733    br    35.000     0
         -8.42612990   -0.73872641   -0.01916971    h      1.000     0
        -12.49447005    1.69484011   -0.01254442    h      1.000     0
 
       center of nuclear mass  :   -4.12780245    5.09253555    0.00526654
       center of nuclear charge:   -3.97768250    4.87299293    0.00453767

              +--------------------------------------------------+
              |               basis set information              |
              +--------------------------------------------------+

              we will work with the 1s 3p 5d 7f 9g ... basis set
              ...i.e. with spherical basis functions...

   type   atoms  prim   cont   basis
   ---------------------------------------------------------------------------
    o        2     24     14   def2-SV(P)   [3s2p1d|7s4p1d]
    c       10     24     14   def2-SV(P)   [3s2p1d|7s4p1d]
    s        2     36     18   def2-SV(P)   [4s3p1d|10s7p1d]
    n        2     24     14   def2-SV(P)   [3s2p1d|7s4p1d]
    h        4      4      2   def2-SV(P)   [2s|4s]
    br       1     74     32   def2-SV(P)   [5s4p3d|14s10p6d]
   ---------------------------------------------------------------------------
   total:   21    498    272
   ---------------------------------------------------------------------------

   total number of primitive shells          :   88
   total number of contracted shells         :  120
   total number of cartesian basis functions :  291
   total number of SCF-basis functions       :  272


 residuum convergence criterium   :  0.10E-04


 integral neglect threshold       :  0.11E-10
 integral storage threshold THIZE :  0.10E-04
 integral storage threshold THIME :         5

 
             FOUND RI-J FLAG !
 
  
 AUXILIARY BASIS SET information:

              we will work with the 1s 3p 5d 7f 9g ... basis set
              ...i.e. with spherical basis functions...

   type   atoms  prim   cont   basis
   ---------------------------------------------------------------------------
    o        2     70     49   def2-SV(P)   [6s4p3d1f1g|12s5p4d2f1g]
    c       10     70     49   def2-SV(P)   [6s4p3d1f1g|12s5p4d2f1g]
    s        2     77     51   def2-SV(P)   [8s4p3d1f1g|14s5p5d2f1g]
    n        2     70     49   def2-SV(P)   [6s4p3d1f1g|12s5p4d2f1g]
    h        4     16     11   def2-SV(P)   [3s1p1d|5s2p1d]
    br       1     89     58   def2-SV(P)   [8s4p3d2f1g|19s5p5d3f1g]
   ---------------------------------------------------------------------------
   total:   21   1287    890
   ---------------------------------------------------------------------------

   total number of primitive shells          :  140
   total number of contracted shells         :  282
   total number of cartesian basis functions : 1101
   total number of SCF-basis functions       :  890

 RPA SINGLET-EXCITATION-CALCULATION 
 
             FOUND DFT-FLAG !
 

 symmetry group of the molecule :   c1 

 the group has the following generators :
   c1(z)

    1 symmetry operations found

 there are 1 real representations :   a   

 maximum number of shells which are related by symmetry :  1

 IRREPs of excited states :   a   
 

 determining totally symmetric integral contributions 
    - equivalent to irreducible tensor elements - 
 which can be formed within each triple of representations :

             representation triple      contributions

              a     a     a               1

    mo occupation :
   irrep   mo's   occupied
    a      272       81
 
 number of basis functions   :                    272
 number of occupied orbitals :                     81
 
  
           ------------------
           density functional
           ------------------
 PBE0 hybrid functional
 exchange:    3/4 (LDA+PBE) + 1/4 HF
 correlation: LDA (PW) + PBE

 iterations will be done with small grid
  
 spherical integration : Lebedev's spherical grid
 spherical gridsize    :                     5
    i.e. gridpoints    :                   590
 value for diffuse not defined
 radial integration    : Chebyshev 2nd kind (scaling 3)
 radial gridsize       :                     8
 integration cells     :                    21
 partition function    : becke
 partition sharpness   :                     3
  
  
           ----------------------
               RI - INFORMATION
           ----------------------

 biggest AO integral is expected to be    21.668154127

 Threshold for integral neglect (rithr2):   0.11E-10
 Threshold for integral neglect (rithr1):   0.11E-10

 Contributions to RI integral batches: 
  neglected integral batches:                  2101
  direct contribution:                            0
  memory contribution:                  5159
 Core memory available (ricore)            5000 MiB
 Core memory needed for (P|Q) and Cholesky 7 MiB
 Core memory used for integrals            250 MiB
  
 ****************************************
 Memory allocated for RIDFT 256 MiB
 ****************************************
                                            
  MOs are in ASCII format !


 reading orbital data $scfmo  from file mos
 orbital characterization : scfconv=9
 preparing numerical integration ....
          Overall gridpoints after grid construction =        122153

 Calculating ground state density on molecular grid

 Integral of ground state density: N =   162.0000415334446    


 all orbitals will be included in the transformation

 number of non-frozen orbitals          :   272
 number of non-frozen occupied orbitals :    81



 dimension of super-tensorspace: 2

          IRREP   tensor space dimension   number of roots

           a             15471                   7

 maximum number of Davidson iterations set to   50


 machine precision: 2.22D-16


 logfile sing_a    will be constructed


                       Nonorthonormal Krylov Space Iteration


 total number of roots to be determined:   7


 maximum core memory set to  5000 MB,
 corresponding to     3796 vectors in CAO basis


 maximum number of simultaneously treated vectors (including degeneracy):       14


 Iteration IRREP Converged      Max. Euclidean
                 roots          residual norm

    1       a        0        1.489256401361917D-01
 
    2       a        0        4.156542946784823D-02
 
    3       a        0        1.807243344375166D-02
 
    4       a        0        9.680649699525307D-02
 
    5       a        0        2.751099671206691D-02
 
    6       a        0        1.422613422246860D-02
 
    7       a        1        6.334026597711763D-03
 
    8       a        3        2.661794487303725D-03
 
    9       a        3        1.210421527311350D-03
 
   10       a        5        3.334189726515744D-04
 
   11       a        6        7.253680717804478D-05
 
   12       a        6        2.161540761260057D-05
 
   13       a        7        7.847837420042891D-06
 

 converged!


 Switching to fine grid

 preparing numerical integration ....
          Overall gridpoints after grid construction =        372238

 Calculating ground state density on molecular grid

 Integral of ground state density: N =   162.0000032978728    



 Iteration IRREP Converged      Max. Euclidean
                 roots          residual norm

   14       a        7        9.520052195470465D-06
 

 converged!

 Eigenpairs written on logfile sing_a   



 IRREP   Vector     Eigenvalue           Euclidean residual norm

  a         1    9.593429074373776D-02    9.520052195470465D-06
            2    1.122852773391110D-01    5.257990467633724D-06
            3    1.330336464571614D-01    8.828966052435278D-06
            4    1.425501926489306D-01    3.812300043802477D-06
            5    1.520863331531001D-01    9.307919971431013D-06
            6    1.557199951384477D-01    6.601737907498341D-06
            7    1.582248783356019D-01    8.422756508059276D-06
 




                    Selection rules for point group c1  


 Subduction with respect to c1  :

    Polar vector representation: a                           

    Axial vector representation: a                           

    Symmetric second rank tensor representation: a                           




                            Ground state


 Total energy:                           -4011.732457669000    

 Charge:

               elec          nuc         total

          -162.000000   161.000000    -1.000000


 Electric dipole moment:

               elec          nuc         total   

    x      645.064811  -640.406883     4.657929    Norm:              7.590050
    y     -790.544565   784.551862    -5.992703
    z       -0.738988     0.730565    -0.008423    Norm / debye:     19.292128


 Electric quadrupole moment:

               elec          nuc         total   

   xx    -7907.309852  7733.892020  -173.417832
   yy    -6028.384604  5894.007136  -134.377468    1/3*trace:      -133.522674
   zz      -98.487729     5.715006   -92.772723
   xy     4929.795656 -4897.207935    32.587721
   xz        6.450857    -6.428353     0.022504    Anisotropy:       89.806814
   yz      -10.255631    10.186730    -0.068902



 ==============================================================================

                              I R R E P   a   

 ==============================================================================


 Excitation is electric dipole allowed

 Excitation is magnetic dipole allowed

 Excitation is electric quadrupole allowed




                         1 singlet a excitation


 Total energy:                           -4011.636523378256    

 Excitation energy:                      0.9593429074373776E-01

 Excitation energy / eV:                  2.610505991715812    

 Excitation energy / nm:                  474.9433420184452    

 Excitation energy / cm^(-1):             21055.14303244827    


 Oscillator strength:

    velocity representation:             0.4776007755179442    

    length representation:               0.5503397087215357    

    mixed representation:                0.5126795225145295    


 Rotatory strength:

    velocity representation:             0.2182854620151098E-06

    velocity rep. / 10^(-40)erg*cm^3:    0.1410229219763963E-01

    length representation:               0.3366006520001033E-06

    length rep. / 10^(-40)erg*cm^3:      0.2174602332469072E-01


 Dominant contributions:

      occ. orbital   energy / eV   virt. orbital     energy / eV   |coeff.|^2*100
       81 a              -2.10          82 a               0.64       93.3
 

 Change of electron number:

            -0.000000


 Electric transition dipole moment (velocity rep.):

    x        2.684625        Norm:                  2.732695
    y       -0.510306
    z       -0.000303        Norm / debye:          6.945871


 Electric transition dipole moment (length rep.):

    x        2.880157        Norm:                  2.933419
    y       -0.556457
    z       -0.000362        Norm / debye:          7.456064


 Magnetic transition dipole moment / i:

    x       -0.000001        Norm:                  0.001752
    y       -0.000004
    z       -0.001752        Norm / Bohr mag.:      0.480178


 Electric quadrupole transition moment:

   xx      -21.372284
   yy       -4.969103        1/3*trace:            -8.740010
   zz        0.121358
   xy       12.855655
   xz        0.002955        Anisotropy:           29.568236
   yz       -0.005220




                         2 singlet a excitation


 Total energy:                           -4011.620172391661    

 Excitation energy:                      0.1122852773391110    

 Excitation energy / eV:                  3.055439165732873    

 Excitation energy / nm:                  405.7820734805226    

 Excitation energy / cm^(-1):             24643.76977704847    


 Oscillator strength:

    velocity representation:             0.4801159062933760E-04

    length representation:               0.6133457458800991E-05

    mixed representation:                0.1716031501750626E-04


 Rotatory strength:

    velocity representation:            -0.2495770747938319E-07

    velocity rep. / 10^(-40)erg*cm^3:   -0.1612388109626444E-02

    length representation:              -0.1942182986533515E-07

    length rep. / 10^(-40)erg*cm^3:     -0.1254743752723400E-02


 Dominant contributions:

      occ. orbital   energy / eV   virt. orbital     energy / eV   |coeff.|^2*100
       80 a              -3.43          82 a               0.64       96.6
 

 Change of electron number:

             0.000000


 Electric transition dipole moment (velocity rep.):

    x        0.000007        Norm:                  0.025325
    y       -0.000088
    z        0.025325        Norm / debye:          0.064371


 Electric transition dipole moment (length rep.):

    x        0.000014        Norm:                  0.009052
    y       -0.000025
    z        0.009052        Norm / debye:          0.023008


 Magnetic transition dipole moment / i:

    x       -0.001357        Norm:                  0.001614
    y        0.000875
    z        0.000002        Norm / Bohr mag.:      0.442407


 Electric quadrupole transition moment:

   xx       -0.000014
   yy        0.000449        1/3*trace:            -0.000109
   zz       -0.000762
   xy        0.000592
   xz       -0.158946        Anisotropy:            0.287947
   yz       -0.048716




                         3 singlet a excitation


 Total energy:                           -4011.599424022543    

 Excitation energy:                      0.1330336464571614    

 Excitation energy / eV:                  3.620031257685535    

 Excitation energy / nm:                  342.4949542721286    

 Excitation energy / cm^(-1):             29197.51042685986    


 Oscillator strength:

    velocity representation:             0.2957426588424553    

    length representation:               0.3257474613650181    

    mixed representation:                0.3103749247522768    


 Rotatory strength:

    velocity representation:             0.2254388354120558E-06

    velocity rep. / 10^(-40)erg*cm^3:    0.1456443457263468E-01

    length representation:               0.3738797575761344E-06

    length rep. / 10^(-40)erg*cm^3:      0.2415443309621942E-01


 Dominant contributions:

      occ. orbital   energy / eV   virt. orbital     energy / eV   |coeff.|^2*100
       79 a              -3.68          82 a               0.64       93.3
 

 Change of electron number:

            -0.000000


 Electric transition dipole moment (velocity rep.):

    x        1.770462        Norm:                  1.826089
    y       -0.447283
    z       -0.000594        Norm / debye:          4.641490


 Electric transition dipole moment (length rep.):

    x        1.854736        Norm:                  1.916485
    y       -0.482565
    z       -0.000673        Norm / debye:          4.871256


 Magnetic transition dipole moment / i:

    x       -0.000003        Norm:                  0.000383
    y       -0.000011
    z        0.000382        Norm / Bohr mag.:      0.104874


 Electric quadrupole transition moment:

   xx      -11.460172
   yy       -3.287142        1/3*trace:            -4.926646
   zz       -0.032622
   xy        7.779558
   xz        0.001433        Anisotropy:           16.898349
   yz       -0.001976




                         4 singlet a excitation


 Total energy:                           -4011.589907476351    

 Excitation energy:                      0.1425501926489306    

 Excitation energy / eV:                  3.878989766279873    

 Excitation energy / nm:                  319.6302426066332    

 Excitation energy / cm^(-1):             31286.15088783791    


 Oscillator strength:

    velocity representation:             0.4356397288170327E-03

    length representation:               0.2343472978284269E-03

    mixed representation:                0.3195167916038268E-03


 Rotatory strength:

    velocity representation:             0.3405522987144023E-07

    velocity rep. / 10^(-40)erg*cm^3:    0.2200131873517037E-02

    length representation:               0.3572104368140749E-07

    length rep. / 10^(-40)erg*cm^3:      0.2307751468876967E-02


 Dominant contributions:

      occ. orbital   energy / eV   virt. orbital     energy / eV   |coeff.|^2*100
       77 a              -4.54          82 a               0.64       94.1
 

 Change of electron number:

            -0.000000


 Electric transition dipole moment (velocity rep.):

    x        0.000089        Norm:                  0.067706
    y        0.000209
    z       -0.067705        Norm / debye:          0.172092


 Electric transition dipole moment (length rep.):

    x        0.000078        Norm:                  0.049658
    y        0.000141
    z       -0.049658        Norm / debye:          0.126220


 Magnetic transition dipole moment / i:

    x        0.001122        Norm:                  0.001161
    y        0.000297
    z        0.000002        Norm / Bohr mag.:      0.318192


 Electric quadrupole transition moment:

   xx       -0.000055
   yy        0.000145        1/3*trace:             0.000175
   zz        0.000435
   xy        0.001253
   xz       -0.306177        Anisotropy:            0.535531
   yz       -0.043033




                         5 singlet a excitation


 Total energy:                           -4011.580371335847    

 Excitation energy:                      0.1520863331531001    

 Excitation energy / eV:                  4.138481463471611    

 Excitation energy / nm:                  299.5887382867792    

 Excitation energy / cm^(-1):             33379.09180329380    


 Oscillator strength:

    velocity representation:             0.3832967871069859E-01

    length representation:               0.4376319728173273E-01

    mixed representation:                0.4090563265982691E-01


 Rotatory strength:

    velocity representation:             0.2554436782724125E-07

    velocity rep. / 10^(-40)erg*cm^3:    0.1650289193692640E-02

    length representation:               0.1574930417619638E-06

    length rep. / 10^(-40)erg*cm^3:      0.1017480904829354E-01


 Dominant contributions:

      occ. orbital   energy / eV   virt. orbital     energy / eV   |coeff.|^2*100
       78 a              -4.27          82 a               0.64       96.6
 

 Change of electron number:

             0.000000


 Electric transition dipole moment (velocity rep.):

    x       -0.355141        Norm:                  0.614849
    y       -0.501906
    z       -0.002070        Norm / debye:          1.562801


 Electric transition dipole moment (length rep.):

    x       -0.405711        Norm:                  0.656984
    y       -0.516742
    z       -0.002152        Norm / debye:          1.669900


 Magnetic transition dipole moment / i:

    x       -0.000004        Norm:                  0.000708
    y       -0.000000
    z        0.000708        Norm / Bohr mag.:      0.194167


 Electric quadrupole transition moment:

   xx       -1.152865
   yy       -1.167559        1/3*trace:            -0.671949
   zz        0.304578
   xy       -3.831061
   xz       -0.010575        Anisotropy:            6.795381
   yz       -0.001987




                         6 singlet a excitation


 Total energy:                           -4011.576737673861    

 Excitation energy:                      0.1557199951384477    

 Excitation energy / eV:                  4.237358479302775    

 Excitation energy / nm:                  292.5979584027760    

 Excitation energy / cm^(-1):             34176.58842561660    


 Oscillator strength:

    velocity representation:             0.1839871350854566E-02

    length representation:               0.3837957525092305E-03

    mixed representation:                0.8403179613996769E-03


 Rotatory strength:

    velocity representation:            -0.4016518649133046E-07

    velocity rep. / 10^(-40)erg*cm^3:   -0.2594864499195197E-02

    length representation:              -0.4286499282485398E-07

    length rep. / 10^(-40)erg*cm^3:     -0.2769284991704915E-02


 Dominant contributions:

      occ. orbital   energy / eV   virt. orbital     energy / eV   |coeff.|^2*100
       76 a              -4.71          82 a               0.64       71.5
       74 a              -5.13          82 a               0.64       19.2
 

 Change of electron number:

            -0.000000


 Electric transition dipole moment (velocity rep.):

    x        0.000010        Norm:                  0.133127
    y        0.000534
    z       -0.133126        Norm / debye:          0.338378


 Electric transition dipole moment (length rep.):

    x       -0.000040        Norm:                  0.060803
    y        0.000273
    z       -0.060802        Norm / debye:          0.154546


 Magnetic transition dipole moment / i:

    x        0.000538        Norm:                  0.000539
    y       -0.000025
    z        0.000000        Norm / Bohr mag.:      0.147724


 Electric quadrupole transition moment:

   xx        0.000333
   yy        0.000572        1/3*trace:             0.000759
   zz        0.001373
   xy       -0.001057
   xz        0.168676        Anisotropy:            0.295159
   yz       -0.024223




                         7 singlet a excitation


 Total energy:                           -4011.574232790664    

 Excitation energy:                      0.1582248783356019    

 Excitation energy / eV:                  4.305519848340112    

 Excitation energy / nm:                  287.9657936178541    

 Excitation energy / cm^(-1):             34726.34674025865    


 Oscillator strength:

    velocity representation:             0.1501961793509929E-03

    length representation:               0.3409736011452163E-04

    mixed representation:                0.6953569995106085E-04


 Rotatory strength:

    velocity representation:             0.1486688783036955E-05

    velocity rep. / 10^(-40)erg*cm^3:    0.9604725588133371E-01

    length representation:               0.1565263357177210E-05

    length rep. / 10^(-40)erg*cm^3:      0.1011235518178642    


 Dominant contributions:

      occ. orbital   energy / eV   virt. orbital     energy / eV   |coeff.|^2*100
       81 a              -2.10          85 a               3.45       97.6
 

 Change of electron number:

            -0.000000


 Electric transition dipole moment (velocity rep.):

    x       -0.001161        Norm:                  0.037734
    y        0.002458
    z        0.037636        Norm / debye:          0.095912


 Electric transition dipole moment (length rep.):

    x       -0.001133        Norm:                  0.017979
    y        0.002757
    z       -0.017730        Norm / debye:          0.045699


 Magnetic transition dipole moment / i:

    x        0.000053        Norm:                  0.000604
    y        0.000601
    z        0.000002        Norm / Bohr mag.:      0.165489


 Electric quadrupole transition moment:

   xx       -0.002662
   yy        0.031273        1/3*trace:             0.009357
   zz       -0.000541
   xy       -0.029502
   xz        0.381501        Anisotropy:            0.726912
   yz       -0.171345


    ------------------------------------------------------------------------
         total  cpu-time :  8 minutes and  6 seconds
         total wall-time :  8 minutes and  6 seconds
    ------------------------------------------------------------------------

   ****  escf : all done  ****


    2018-02-08 14:01:31.139 

 escf ended normally
