
Wed Feb  7 15:50:11 PST 2018
jobex WAS CALLED AS: jobex -ex -ri -c 300 -outfile exopt.out
AN OPTIMIZATION WITH MAX. 300 CYCLES WILL BE PERFORMED
CONVERGENCY CRITERION FOR TOTAL SCF-ENERGY IS 10**(-6)
CONVERGENCY CRITERION FOR MAXIMUM NORM OF SCF-ENERGY GRADIENT IS 10**(-3)
CONVERGENCY CRITERION FOR MAXIMUM NORM OF BASIS SET GRADIENT IS 10**(-3)
PROCEDURE WILL START WITH A dscf like STEP
AN EXCITED STATE GEOMETRY OPTIMIZATION WILL BE PERFORMED
LOAD MODULES WILL BE TAKEN FROM DIRECTORY /modfac/apps/TURBOMOLE/7.2-official/bin/em64t-unknown-linux-gnu
DSCF  = /modfac/apps/TURBOMOLE/7.2-official/bin/em64t-unknown-linux-gnu/ridft
GRAD  = /modfac/apps/TURBOMOLE/7.2-official/bin/em64t-unknown-linux-gnu/egrad
STATPT = /modfac/apps/TURBOMOLE/7.2-official/bin/em64t-unknown-linux-gnu/statpt

 operating system is UNIX !

 ridft (nile) : TURBOMOLE V7.2 ( 21285 ) 30 Jun 2017 at 11:51:10
 Copyright (C) 2017 TURBOMOLE GmbH, Karlsruhe


    2018-02-07 15:50:11.727 



                                  r i d f t

                        DFT program with RI approximation 
                                for coulomb part 




                                                 
                                 References:     
                                                 
          TURBOMOLE:                             
              R. Ahlrichs, M. Baer, M. Haeser, H. Horn, and
              C. Koelmel
              Electronic structure calculations on workstation
              computers: the program system TURBOMOLE
              Chem. Phys. Lett. 162: 165 (1989)
          Density Functional:                              
              O. Treutler and R. Ahlrichs                      
              Efficient Molecular Numerical Integration Schemes
              J. Chem. Phys. 102: 346 (1995)                   
          Parallel Version:                                
              Performance of parallel TURBOMOLE for Density    
              Functional Calculations                          
              M. v. Arnim and R. Ahlrichs                      
              J. Comp. Chem. 19: 1746 (1998)                   
          RI-J Method:                                     
              Auxiliary Basis Sets to approximate Coulomb      
              Potentials                                       
              Chem. Phys. Lett. 240: 283 (1995)                
              K. Eichkorn, O. Treutler, H. Oehm, M. Haeser     
              and R. Ahlrichs                                  
              Chem. Phys. Lett. 242: 652 (1995)                
                                                           
              Auxiliary Basis Sets for Main Row Atoms and their
              Use to approximate Coulomb Potentials            
              K. Eichkorn, F. Weigend, O. Treutler and         
              R. Ahlrichs                                      
              Theo. Chem. Acc. 97: 119 (1997)                   
                                                           
              Accurate Coulomb-fitting basis sets for H to Rn 
              F. Weigend                                        
              Phys. Chem. Chem. Phys. 8: 1057 (2006)            
                                                           
          Multipole accelerated RI-J (MARI-J):             
              Fast evaluation of the Coulomb potential for     
              electron densities using multipole accelerated   
              resolution of identity approximation             
              M. Sierka, A. Hogekamp and R. Ahlrichs           
              J. Chem. Phys. 118: 9136 (2003)                  
          RI-JK Method:                                     
              A fully direct RI-HF algorithm: Implementation,
              optimised auxiliary basis sets, demonstration of
              accuracy and efficiency                         
              F. Weigend                                      
              Phys. Chem. Chem. Phys. 4: 4285 (2002)           
          Two-component HF and DFT with spin-orbit coupling:  
              Self-consistent treatment of spin-orbit         
              interactions with efficient Hartree-Fock and    
              density functional methods                      
              M. K. Armbruster, F. Weigend, C. van Wüllen and 
              W. Klopper                                      
              Phys. Chem. Chem. Phys. 10: 1748 (2008)         
          Relativistic all-electron 2c calculations           
              An efficient implementation of two-component    
              relativistic exact-decoupling methods for large 
              molecules                                       
              D. Peng, N. Middendorf, F. Weigend, M. Reiher   
              J. Chem. Phys. 138, 184105 (2013)               
                                         




              +--------------------------------------------------+
              |      general information about current run       |
              +--------------------------------------------------+

 

 DENSITY CONVERGENCE CHECK SWITCHED ON !
 SCF CONVERGENCE IF RMS(delta[D]) <     0.1000000000E-06

 PBE0 hybrid functional
 exchange:    3/4 (LDA+PBE) + 1/4 HF
 correlation: LDA (PW) + PBE
 A Hybrid-DFT calculation using the RI-J approximation will be carried out.
 Allocatable memory for RI due to $ricore (MB):                  5000


              +--------------------------------------------------+
              | Atomic coordinate, charge and isotop information |
              +--------------------------------------------------+

                    atomic coordinates            atom    charge  isotop
        -12.86871272    6.54900276    0.00652914    o      8.000     0
        -10.82297687    5.43394448    0.00289376    c      6.000     0
         -8.37339773    6.69472945    0.00865491    c      6.000     0
         -6.14212000    5.36176898    0.00494541    c      6.000     0
         -6.10465984    2.63854137   -0.00517653    c      6.000     0
         -8.45547573    1.32930428   -0.01158976    c      6.000     0
        -10.66360993    2.65843903   -0.00775436    c      6.000     0
         -3.04883871    6.46477488    0.01109665    s     16.000     0
         -1.99990584    3.28770023   -0.00024157    c      6.000     0
         -3.81330676    1.58056013   -0.00751086    n      7.000     0
          0.60946903    2.68632560   -0.00121938    c      6.000     0
          1.44125726   -0.58038206   -0.01278789    s     16.000     0
          2.43472654    4.34194238    0.00589154    n      7.000     0
          4.79551045    3.26693629    0.00377817    c      6.000     0
          4.71581387    0.34094062   -0.00691310    c      6.000     0
          5.70950423   -0.37808884    1.67777665    h      1.000     0
          5.71210951   -0.36584099   -1.69524410    h      1.000     0
          6.78956355    4.38666885    0.00935901    o      8.000     0
         -8.35015946   10.25892960    0.02149164    br    35.000     0
         -8.42605142   -0.73858123   -0.01947541    h      1.000     0
        -12.49414422    1.69446851   -0.01267993    h      1.000     0
 
       center of nuclear mass  :   -4.12780271    5.09258871    0.00515867
       center of nuclear charge:   -3.97768221    4.87304007    0.00444447

              +--------------------------------------------------+
              |               basis set information              |
              +--------------------------------------------------+

              we will work with the 1s 3p 5d 7f 9g ... basis set
              ...i.e. with spherical basis functions...

   type   atoms  prim   cont   basis
   ---------------------------------------------------------------------------
    o        2     24     14   def2-SV(P)   [3s2p1d|7s4p1d]
    c       10     24     14   def2-SV(P)   [3s2p1d|7s4p1d]
    s        2     36     18   def2-SV(P)   [4s3p1d|10s7p1d]
    n        2     24     14   def2-SV(P)   [3s2p1d|7s4p1d]
    h        4      4      2   def2-SV(P)   [2s|4s]
    br       1     74     32   def2-SV(P)   [5s4p3d|14s10p6d]
   ---------------------------------------------------------------------------
   total:   21    498    272
   ---------------------------------------------------------------------------

   total number of primitive shells          :   88
   total number of contracted shells         :  120
   total number of cartesian basis functions :  291
   total number of SCF-basis functions       :  272


 integral neglect threshold       :  0.11E-10
 integral storage threshold THIZE :  0.10E-04
 integral storage threshold THIME :         5

 RI-J AUXILIARY BASIS SET information:

              we will work with the 1s 3p 5d 7f 9g ... basis set
              ...i.e. with spherical basis functions...

   type   atoms  prim   cont   basis
   ---------------------------------------------------------------------------
    o        2     70     49   def2-SV(P)   [6s4p3d1f1g|12s5p4d2f1g]
    c       10     70     49   def2-SV(P)   [6s4p3d1f1g|12s5p4d2f1g]
    s        2     77     51   def2-SV(P)   [8s4p3d1f1g|14s5p5d2f1g]
    n        2     70     49   def2-SV(P)   [6s4p3d1f1g|12s5p4d2f1g]
    h        4     16     11   def2-SV(P)   [3s1p1d|5s2p1d]
    br       1     89     58   def2-SV(P)   [8s4p3d2f1g|19s5p5d3f1g]
   ---------------------------------------------------------------------------
   total:   21   1287    890
   ---------------------------------------------------------------------------

   total number of primitive shells          :  140
   total number of contracted shells         :  282
   total number of cartesian basis functions : 1101
   total number of SCF-basis functions       :  890


 symmetry group of the molecule :   c1 

 the group has the following generators :
   c1(z)

    1 symmetry operations found

 there are 1 real representations :   a   

 maximum number of shells which are related by symmetry :  1


    mo occupation :
   irrep   mo's   occupied
    a      272       81
 
 number of basis functions   :                    272
 number of occupied orbitals :                     81
 
  
           ------------------
           density functional
           ------------------
 PBE0 hybrid functional
 exchange:    3/4 (LDA+PBE) + 1/4 HF
 correlation: LDA (PW) + PBE

 iterations will be done with small grid
  
 spherical integration : Lebedev's spherical grid
 spherical gridsize    :                     5
    i.e. gridpoints    :                   590
 value for diffuse not defined
 radial integration    : Chebyshev 2nd kind (scaling 3)
 radial gridsize       :                     8
 integration cells     :                    21
 partition function    : becke
 partition sharpness   :                     3
  

 biggest AO integral is expected to be    21.668154127
  
           ------------------------
               RI-J - INFORMATION
           ------------------------
 Contributions to RI integral batches: 
  neglected integral batches:                  2250
  direct contribution:                            0
  memory contribution:                  5010
 Memory core needed for (P|Q) and Cholesky      7 MByte
 Memory core minimum needed except of (P|Q)     1 MByte
 Total minimum memory core needed (sum)         7 MByte
  
 ****************************************
 Memory allocated for RI-J   250 MByte
 ****************************************
                                            

          ------------------------
          nuclear repulsion energy  :   1708.82855687    
          ------------------------


         -----------------
         -S,T+V- integrals
         -----------------

 1e-integrals will be neglected if expon. factor < 0.114844E-11
 
   Difference densities algorithm switched on.
   The maximal number of linear combinations of
   difference densities is                    20 .

 DIIS switched on: error vector is FDS-SDF
 Max. Iterations for DIIS is     :   4
 DIIS matrix (see manual) 
    Scaling factor of diagonals  :  1.200
    threshold for scaling factor :  0.000

 scf convergence criterion : increment of total energy < .1000000D-06
                  and increment of one-electron energy < .1000000D-03

  MOs are in ASCII format !


 automatic virtual orbital shift switched on 
      shift if e(lumo)-e(homo) < 0.10000000    


 reading orbital data $scfmo  from file mos
 orbital characterization : scfconv=7

 DSCF restart information will be dumped onto file mos


 Starting SCF iterations

          Overall gridpoints after grid construction =        122153

 ITERATION  ENERGY          1e-ENERGY        2e-ENERGY     RMS[dD(SAO)]   TOL
   1  -4011.7324643311    -8978.4575097     3257.8964885    0.000D+00 0.115D-10
                            Exc = -172.747716860     Coul =  3486.31197099    
                            exK = -55.6677656736    
                              N = 162.00004146    
                            current damping = 0.700
 
          max. resid. norm for Fia-block=  2.317D-06 for orbital      1a         
          max. resid. fock norm         =  4.682D-06 for orbital    197a         

 ITERATION  ENERGY          1e-ENERGY        2e-ENERGY     RMS[dD(SAO)]   TOL
   2  -4011.7324643296    -8978.4575060     3257.8964848    0.111D-06 0.726D-11
                            Exc = -172.747716462      Eck =  3430.64420130    
                              N = 162.00004146    
                            current damping = 0.700
 
          Norm of current diis error: 0.13659E-04
          max. resid. norm for Fia-block=  1.102D-06 for orbital     68a         
          max. resid. fock norm         =  2.050D-06 for orbital    197a         

 ENERGY & DENSITY CONVERGED !

          Overall gridpoints after grid construction =        372241

 ITERATION  ENERGY          1e-ENERGY        2e-ENERGY     RMS[dD(SAO)]   TOL
   3  -4011.7324575988    -8978.4575124     3257.8964979    0.603D-07 0.663D-11
                            Exc = -172.747709443      Eck =  3430.64420737    
                              N = 162.00000330    
                            current damping = 0.750
 
          Norm of current diis error: 0.49938E-05
          max. resid. norm for Fia-block=  6.316D-07 for orbital     68a         
          max. resid. fock norm         =  8.481D-07 for orbital    197a         

 End of SCF iterations

   convergence criteria satisfied after    3 iterations


                  ------------------------------------------ 
                 |  total energy      =  -4011.73245759881  |
                  ------------------------------------------ 
                 :  kinetic energy    =   4002.42298810662  :
                 :  potential energy  =  -8014.15544570543  :
                 :  virial theorem    =      1.99767943910  :
                 :  wavefunction norm =      1.00000000000  :
                  .......................................... 


 orbitals $scfmo  will be written to file mos

    irrep                 77a         78a         79a         80a         81a   
 eigenvalues H         -0.16698    -0.15677    -0.13534    -0.12600    -0.07710
            eV          -4.5437     -4.2659     -3.6829     -3.4286     -2.0980
 occupation              2.0000      2.0000      2.0000      2.0000      2.0000 

    irrep                 82a         83a         84a         85a         86a   
 eigenvalues H          0.02346     0.11079     0.11990     0.12681     0.13506
            eV           0.6385      3.0149      3.2627      3.4506      3.6753
 
 
 
 
 ==============================================================================
                           electrostatic moments
 ==============================================================================

 reference point for electrostatic moments:    0.00000   0.00000   0.00000

 
              nuc           elec       ->  total
 ------------------------------------------------------------------------------
                          charge      
 ------------------------------------------------------------------------------
         161.000000    -162.000000      -1.000000
 
 ------------------------------------------------------------------------------
                       dipole moment  
 ------------------------------------------------------------------------------
   x    -640.406837     645.064914       4.658077
   y     784.559451    -790.552345      -5.992895
   z       0.715560      -0.724113      -0.008553
 
   | dipole moment | =     7.5903 a.u. =    19.2926 debye 
 
 ------------------------------------------------------------------------------
                     quadrupole moment
 ------------------------------------------------------------------------------
  xx    7733.917522   -7907.333874    -173.416352
  yy    5894.124567   -6028.503107    -134.378540
  zz       5.714115     -98.486509     -92.772394
  xy   -4897.275349    4929.862454      32.587105
  xz      -6.381525       6.407702       0.026178
  yz      10.067128     -10.136853      -0.069724
 
     1/3  trace=    -133.522429
     anisotropy=      89.805400
 
 ==============================================================================
 


    ------------------------------------------------------------------------
         total  cpu-time :  28.13 seconds
         total wall-time :  28.14 seconds
    ------------------------------------------------------------------------

   ****  ridft : all done  ****


    2018-02-07 15:50:39.855 

fine, there is no data group "$actual step"
next step = egrad

 egrad (nile) : TURBOMOLE V7.2 ( 21285 ) 30 Jun 2017 at 11:51:10
 Copyright (C) 2017 TURBOMOLE GmbH, Karlsruhe


    2018-02-07 15:50:39.879 




                               e g r a d

                             TURBOMOLE GmbH


             integral direct evaluation of excited state
                     and polarizability gradients
                 and first-order nonadiabatic couplings



          references (see also programs escf, dscf and ridft) 

          review 
          F. Furche and D. Rappoport,  
          "Density functional methods for excited states: 
          equilibrium structure and electronic spectra",
          ch. III of "Computational Photochemistry", ed. by 
          M. Olivucci, vol. 16 of "Theoretical and Computational 
          Chemistry", Elsevier, Amsterdam, 2005.

          nonorthonormal Krylov space methods 
          F. Furche, B. T. Krull, B. D. Nguyen, J. Kwon, 
          J. Chem. Phys. 144 (2016), 174105.

          RI-J method 
          D. Rappoport and F. Furche, 
          J. Chem. Phys. 122 (2005), 064105.

          Lagrangian method, implementation, benchmarks 
          F. Furche and R. Ahlrichs,
          J. Chem. Phys. 117 (2002), 7433;
          J. Chem. Phys. 121 (2004), 12772 (E).

          Polarizability derivatives, Raman intensities 
          D. Rappoport and F. Furche, 
          J. Chem. Phys. 126 (2007), 201104.

          First-order nonadiabatic couplings 
          R. Send and F. Furche, 
          J. Chem. Phys. 132 (2010), 044107.
                                     




              +--------------------------------------------------+
              | Atomic coordinate, charge and isotop information |
              +--------------------------------------------------+

                    atomic coordinates            atom    charge  isotop
        -12.86871272    6.54900276    0.00652914    o      8.000     0
        -10.82297687    5.43394448    0.00289376    c      6.000     0
         -8.37339773    6.69472945    0.00865491    c      6.000     0
         -6.14212000    5.36176898    0.00494541    c      6.000     0
         -6.10465984    2.63854137   -0.00517653    c      6.000     0
         -8.45547573    1.32930428   -0.01158976    c      6.000     0
        -10.66360993    2.65843903   -0.00775436    c      6.000     0
         -3.04883871    6.46477488    0.01109665    s     16.000     0
         -1.99990584    3.28770023   -0.00024157    c      6.000     0
         -3.81330676    1.58056013   -0.00751086    n      7.000     0
          0.60946903    2.68632560   -0.00121938    c      6.000     0
          1.44125726   -0.58038206   -0.01278789    s     16.000     0
          2.43472654    4.34194238    0.00589154    n      7.000     0
          4.79551045    3.26693629    0.00377817    c      6.000     0
          4.71581387    0.34094062   -0.00691310    c      6.000     0
          5.70950423   -0.37808884    1.67777665    h      1.000     0
          5.71210951   -0.36584099   -1.69524410    h      1.000     0
          6.78956355    4.38666885    0.00935901    o      8.000     0
         -8.35015946   10.25892960    0.02149164    br    35.000     0
         -8.42605142   -0.73858123   -0.01947541    h      1.000     0
        -12.49414422    1.69446851   -0.01267993    h      1.000     0
 
       center of nuclear mass  :   -4.12780271    5.09258871    0.00515867
       center of nuclear charge:   -3.97768221    4.87304007    0.00444447

              +--------------------------------------------------+
              |               basis set information              |
              +--------------------------------------------------+

              we will work with the 1s 3p 5d 7f 9g ... basis set
              ...i.e. with spherical basis functions...

   type   atoms  prim   cont   basis
   ---------------------------------------------------------------------------
    o        2     24     14   def2-SV(P)   [3s2p1d|7s4p1d]
    c       10     24     14   def2-SV(P)   [3s2p1d|7s4p1d]
    s        2     36     18   def2-SV(P)   [4s3p1d|10s7p1d]
    n        2     24     14   def2-SV(P)   [3s2p1d|7s4p1d]
    h        4      4      2   def2-SV(P)   [2s|4s]
    br       1     74     32   def2-SV(P)   [5s4p3d|14s10p6d]
   ---------------------------------------------------------------------------
   total:   21    498    272
   ---------------------------------------------------------------------------

   total number of primitive shells          :   88
   total number of contracted shells         :  120
   total number of cartesian basis functions :  291
   total number of SCF-basis functions       :  272


 residuum convergence criterium   :  0.10E-04


 integral neglect threshold       :  0.11E-10
 integral storage threshold THIZE :  0.10E-04
 integral storage threshold THIME :         5

 
             FOUND RI-J FLAG !
 
  
 AUXILIARY BASIS SET information:

              we will work with the 1s 3p 5d 7f 9g ... basis set
              ...i.e. with spherical basis functions...

   type   atoms  prim   cont   basis
   ---------------------------------------------------------------------------
    o        2     70     49   def2-SV(P)   [6s4p3d1f1g|12s5p4d2f1g]
    c       10     70     49   def2-SV(P)   [6s4p3d1f1g|12s5p4d2f1g]
    s        2     77     51   def2-SV(P)   [8s4p3d1f1g|14s5p5d2f1g]
    n        2     70     49   def2-SV(P)   [6s4p3d1f1g|12s5p4d2f1g]
    h        4     16     11   def2-SV(P)   [3s1p1d|5s2p1d]
    br       1     89     58   def2-SV(P)   [8s4p3d2f1g|19s5p5d3f1g]
   ---------------------------------------------------------------------------
   total:   21   1287    890
   ---------------------------------------------------------------------------

   total number of primitive shells          :  140
   total number of contracted shells         :  282
   total number of cartesian basis functions : 1101
   total number of SCF-basis functions       :  890

 RPA SINGLET-EXCITATION-CALCULATION 
 
             FOUND DFT-FLAG !
 

 symmetry group of the molecule :   c1 

 the group has the following generators :
   c1(z)

    1 symmetry operations found

 there are 1 real representations :   a   

 maximum number of shells which are related by symmetry :  1

 IRREP of excited state :   a   
 

 determining totally symmetric integral contributions 
    - equivalent to irreducible tensor elements - 
 which can be formed within each triple of representations :

             representation triple      contributions

              a     a     a               1

    mo occupation :
   irrep   mo's   occupied
    a      272       81
 
 number of basis functions   :                    272
 number of occupied orbitals :                     81
 
  
           ------------------
           density functional
           ------------------
 PBE0 hybrid functional
 exchange:    3/4 (LDA+PBE) + 1/4 HF
 correlation: LDA (PW) + PBE

 iterations will be done with small grid
  
 spherical integration : Lebedev's spherical grid
 spherical gridsize    :                     5
    i.e. gridpoints    :                   590
 value for diffuse not defined
 radial integration    : Chebyshev 2nd kind (scaling 3)
 radial gridsize       :                     8
 integration cells     :                    21
 partition function    : becke
 partition sharpness   :                     3
  
  
           ----------------------
               RI - INFORMATION
           ----------------------

 biggest AO integral is expected to be    21.668154127

 Threshold for integral neglect (rithr2):   0.11E-10
 Threshold for integral neglect (rithr1):   0.11E-10

 Contributions to RI integral batches: 
  neglected integral batches:                  2101
  direct contribution:                            0
  memory contribution:                  5159
 Core memory available (ricore)            5000 MiB
 Core memory needed for (P|Q) and Cholesky 7 MiB
 Core memory used for integrals            250 MiB
  
 ****************************************
 Memory allocated for RIDFT 256 MiB
 ****************************************
                                            
  MOs are in ASCII format !


 reading orbital data $scfmo  from file mos
 orbital characterization : scfconv=7
 preparing numerical integration ....
          Overall gridpoints after grid construction =        122153

 Calculating ground state density on molecular grid

 Integral of ground state density: N =   162.0000414558806    



 number of non-frozen orbitals          :   272
 number of non-frozen occupied orbitals :    81



                        -------------------
                         excitation vector 
                        -------------------


 dimension of super-tensorspace: 2

          IRREP   tensor space dimension   number of roots

           a             15471                   7

 maximum number of Davidson iterations set to   50


 machine precision: 2.22D-16


 logfile sing_a    exists already

 found      7 converged vectors on sing_a   
 read       7 vectors from logfile sing_a   



                       Nonorthonormal Krylov Space Iteration


 total number of roots to be determined:   7


 maximum core memory set to  5000 MB,
 corresponding to     3796 vectors in CAO basis


 maximum number of simultaneously treated vectors (including degeneracy):        7


 Iteration IRREP Converged      Max. Euclidean
                 roots          residual norm

    1       a        7        6.832215974800343D-06
 

 converged!


 Switching to fine grid

 preparing numerical integration ....
          Overall gridpoints after grid construction =        372241

 Calculating ground state density on molecular grid

 Integral of ground state density: N =   162.0000032953562    



 Iteration IRREP Converged      Max. Euclidean
                 roots          residual norm

    2       a        6        1.002865796318658D-05
 

 NOTE: Residual norms are larger than 1.00D-05 due to mgrid option!

 Eigenpairs written on logfile sing_a   



 IRREP   Vector     Eigenvalue           Euclidean residual norm

  a         1    9.593722982757912D-02    9.830198851064833D-06
            2    1.123041206270827D-01    4.861192402688361D-06
            3    1.330416967892476D-01    8.451086841821327D-06
            4    1.425522322256714D-01    4.142733747683566D-06
            5    1.520987915796441D-01    9.698460873753316D-06
            6    1.557282041990075D-01    7.443280996194825D-06
            7    1.582227893062174D-01    1.002865796318658D-05
 




                    Selection rules for point group c1  


 Subduction with respect to c1  :

    Polar vector representation: a                           

    Axial vector representation: a                           

    Symmetric second rank tensor representation: a                           




                            Ground state


 Total energy:                           -4011.732457599000    

 Charge:

               elec          nuc         total

          -162.000000   161.000000    -1.000000


 Electric dipole moment:

               elec          nuc         total   

    x      645.064914  -640.406837     4.658077    Norm:              7.590293
    y     -790.552345   784.559451    -5.992895
    z       -0.724113     0.715560    -0.008553    Norm / debye:     19.292745


 Electric quadrupole moment:

               elec          nuc         total   

   xx    -7907.333874  7733.917522  -173.416352
   yy    -6028.503107  5894.124567  -134.378540    1/3*trace:      -133.522429
   zz      -98.486509     5.714115   -92.772394
   xy     4929.862454 -4897.275349    32.587105
   xz        6.407702    -6.381525     0.026178    Anisotropy:       89.805400
   yz      -10.136853    10.067128    -0.069724



 ==============================================================================

                              I R R E P   a   

 ==============================================================================


 Excitation is electric dipole allowed

 Excitation is magnetic dipole allowed

 Excitation is electric quadrupole allowed




                         1 singlet a excitation


 Total energy:                           -4011.636520369173    

 Excitation energy:                      0.9593722982757912E-01

 Excitation energy / eV:                  2.610585968290596    

 Excitation energy / nm:                  474.9287918974484    

 Excitation energy / cm^(-1):             21055.78808678895    


 Oscillator strength:

    velocity representation:             0.4776790813859240    

    length representation:               0.5504247971124900    

    mixed representation:                0.5127611908576369    


 Rotatory strength:

    velocity representation:            -0.1505875776886524E-06

    velocity rep. / 10^(-40)erg*cm^3:   -0.9728682809637299E-02

    length representation:              -0.3169378790331909E-07

    length rep. / 10^(-40)erg*cm^3:     -0.2047571348712557E-02


 Dominant contributions:

      occ. orbital   energy / eV   virt. orbital     energy / eV   |coeff.|^2*100
       81 a              -2.10          82 a               0.64       93.3
 

 Change of electron number:

             0.000000


 Electric transition dipole moment (velocity rep.):

    x        2.684791        Norm:                  2.732877
    y       -0.510408
    z       -0.000327        Norm / debye:          6.946334


 Electric transition dipole moment (length rep.):

    x        2.880324        Norm:                  2.933601
    y       -0.556551
    z       -0.000404        Norm / debye:          7.456526


 Magnetic transition dipole moment / i:

    x       -0.000001        Norm:                  0.001752
    y       -0.000004
    z       -0.001752        Norm / Bohr mag.:      0.480208


 Electric quadrupole transition moment:

   xx      -21.372325
   yy       -4.969999        1/3*trace:            -8.740335
   zz        0.121319
   xy       12.856476
   xz        0.003231        Anisotropy:           29.569144
   yz       -0.005275




                         2 singlet a excitation


 Total energy:                           -4011.620153478373    

 Excitation energy:                      0.1123041206270827    

 Excitation energy / eV:                  3.055951917907016    

 Excitation energy / nm:                  405.7139881028745    

 Excitation energy / cm^(-1):             24647.90540071722    


 Oscillator strength:

    velocity representation:             0.4798058667472814E-04

    length representation:               0.6135123567355133E-05

    mixed representation:                0.1715621969503855E-04


 Rotatory strength:

    velocity representation:            -0.2047227001277262E-06

    velocity rep. / 10^(-40)erg*cm^3:   -0.1322607245594352E-01

    length representation:              -0.1919029844874746E-06

    length rep. / 10^(-40)erg*cm^3:     -0.1239785708062474E-01


 Dominant contributions:

      occ. orbital   energy / eV   virt. orbital     energy / eV   |coeff.|^2*100
       80 a              -3.43          82 a               0.64       96.6
 

 Change of electron number:

             0.000000


 Electric transition dipole moment (velocity rep.):

    x       -0.000136        Norm:                  0.025315
    y        0.000103
    z       -0.025315        Norm / debye:          0.064345


 Electric transition dipole moment (length rep.):

    x       -0.000141        Norm:                  0.009052
    y        0.000029
    z       -0.009051        Norm / debye:          0.023009


 Magnetic transition dipole moment / i:

    x        0.001356        Norm:                  0.001614
    y       -0.000875
    z       -0.000003        Norm / Bohr mag.:      0.442344


 Electric quadrupole transition moment:

   xx        0.000799
   yy       -0.000610        1/3*trace:             0.000314
   zz        0.000753
   xy       -0.000772
   xz        0.158946        Anisotropy:            0.287931
   yz        0.048677




                         3 singlet a excitation


 Total energy:                           -4011.599415902211    

 Excitation energy:                      0.1330416967892476    

 Excitation energy / eV:                  3.620250318461233    

 Excitation energy / nm:                  342.4742299564720    

 Excitation energy / cm^(-1):             29199.27727052149    


 Oscillator strength:

    velocity representation:             0.2956936572825971    

    length representation:               0.3256943628046622    

    mixed representation:                0.3103239156457072    


 Rotatory strength:

    velocity representation:             0.8292000645479305E-06

    velocity rep. / 10^(-40)erg*cm^3:    0.5357031793416970E-01

    length representation:               0.1009197890924537E-05

    length rep. / 10^(-40)erg*cm^3:      0.6519904446075443E-01


 Dominant contributions:

      occ. orbital   energy / eV   virt. orbital     energy / eV   |coeff.|^2*100
       79 a              -3.68          82 a               0.64       93.4
 

 Change of electron number:

             0.000000


 Electric transition dipole moment (velocity rep.):

    x        1.770274        Norm:                  1.825882
    y       -0.447184
    z       -0.000653        Norm / debye:          4.640965


 Electric transition dipole moment (length rep.):

    x        1.854542        Norm:                  1.916271
    y       -0.482460
    z       -0.000737        Norm / debye:          4.870711


 Magnetic transition dipole moment / i:

    x       -0.000002        Norm:                  0.000383
    y       -0.000012
    z        0.000382        Norm / Bohr mag.:      0.104840


 Electric quadrupole transition moment:

   xx      -11.458208
   yy       -3.286629        1/3*trace:            -4.925836
   zz       -0.032670
   xy        7.778758
   xz        0.001668        Anisotropy:           16.896159
   yz       -0.002228




                         4 singlet a excitation


 Total energy:                           -4011.589905366774    

 Excitation energy:                      0.1425522322256714    

 Excitation energy / eV:                  3.879045266010585    

 Excitation energy / nm:                  319.6256694729945    

 Excitation energy / cm^(-1):             31286.59852318987    


 Oscillator strength:

    velocity representation:             0.4362887675583933E-03

    length representation:               0.2344546015005623E-03

    mixed representation:                0.3198279092063800E-03


 Rotatory strength:

    velocity representation:             0.2936737052364461E-07

    velocity rep. / 10^(-40)erg*cm^3:    0.1897273581014378E-02

    length representation:               0.3440624973096927E-07

    length rep. / 10^(-40)erg*cm^3:      0.2222809447096858E-02


 Dominant contributions:

      occ. orbital   energy / eV   virt. orbital     energy / eV   |coeff.|^2*100
       77 a              -4.54          82 a               0.64       94.1
 

 Change of electron number:

            -0.000000


 Electric transition dipole moment (velocity rep.):

    x       -0.000057        Norm:                  0.067756
    y       -0.000301
    z        0.067755        Norm / debye:          0.172219


 Electric transition dipole moment (length rep.):

    x       -0.000048        Norm:                  0.049669
    y       -0.000240
    z        0.049669        Norm / debye:          0.126248


 Magnetic transition dipole moment / i:

    x       -0.001122        Norm:                  0.001161
    y       -0.000297
    z       -0.000002        Norm / Bohr mag.:      0.318231


 Electric quadrupole transition moment:

   xx       -0.000531
   yy       -0.000486        1/3*trace:            -0.000459
   zz       -0.000360
   xy       -0.001460
   xz        0.306100        Anisotropy:            0.535405
   yz        0.043053




                         5 singlet a excitation


 Total energy:                           -4011.580358807420    

 Excitation energy:                      0.1520987915796441    

 Excitation energy / eV:                  4.138820474651957    

 Excitation energy / nm:                  299.5641989446146    

 Excitation energy / cm^(-1):             33381.82611185867    


 Oscillator strength:

    velocity representation:             0.3833992545224445E-01

    length representation:               0.4377030255986927E-01

    mixed representation:                0.4091443718200133E-01


 Rotatory strength:

    velocity representation:             0.2815869646057406E-06

    velocity rep. / 10^(-40)erg*cm^3:    0.1819187415074709E-01

    length representation:               0.5357627524601474E-06

    length rep. / 10^(-40)erg*cm^3:      0.3461285425999499E-01


 Dominant contributions:

      occ. orbital   energy / eV   virt. orbital     energy / eV   |coeff.|^2*100
       78 a              -4.27          82 a               0.64       96.6
 

 Change of electron number:

             0.000000


 Electric transition dipole moment (velocity rep.):

    x       -0.355066        Norm:                  0.614906
    y       -0.502028
    z       -0.002248        Norm / debye:          1.562946


 Electric transition dipole moment (length rep.):

    x       -0.405612        Norm:                  0.657011
    y       -0.516853
    z       -0.002224        Norm / debye:          1.669968


 Magnetic transition dipole moment / i:

    x       -0.000005        Norm:                  0.000709
    y       -0.000001
    z        0.000709        Norm / Bohr mag.:      0.194303


 Electric quadrupole transition moment:

   xx       -1.155258
   yy       -1.167842        1/3*trace:            -0.672833
   zz        0.304602
   xy       -3.830881
   xz       -0.010495        Anisotropy:            6.795368
   yz       -0.002055




                         6 singlet a excitation


 Total energy:                           -4011.576729394801    

 Excitation energy:                      0.1557282041990075    

 Excitation energy / eV:                  4.237581859301851    

 Excitation energy / nm:                  292.5825343864743    

 Excitation energy / cm^(-1):             34178.39010615136    


 Oscillator strength:

    velocity representation:             0.1839907756025363E-02

    length representation:               0.3837213147430797E-03

    mixed representation:                0.8402334747383576E-03


 Rotatory strength:

    velocity representation:             0.1089037826389613E-06

    velocity rep. / 10^(-40)erg*cm^3:    0.7035708883336249E-02

    length representation:               0.1372210867103196E-06

    length rep. / 10^(-40)erg*cm^3:      0.8865143113986311E-02


 Dominant contributions:

      occ. orbital   energy / eV   virt. orbital     energy / eV   |coeff.|^2*100
       76 a              -4.71          82 a               0.64       71.5
       74 a              -5.13          82 a               0.64       19.2
 

 Change of electron number:

            -0.000000


 Electric transition dipole moment (velocity rep.):

    x       -0.000334        Norm:                  0.133125
    y       -0.000990
    z        0.133121        Norm / debye:          0.338373


 Electric transition dipole moment (length rep.):

    x       -0.000328        Norm:                  0.060795
    y       -0.000719
    z        0.060790        Norm / debye:          0.154527


 Magnetic transition dipole moment / i:

    x       -0.000537        Norm:                  0.000537
    y        0.000025
    z       -0.000000        Norm / Bohr mag.:      0.147224


 Electric quadrupole transition moment:

   xx       -0.000725
   yy       -0.001073        1/3*trace:            -0.000932
   zz       -0.000998
   xy       -0.003063
   xz       -0.168797        Anisotropy:            0.295477
   yz        0.024500




                         7 singlet a excitation


 Total energy:                           -4011.574234809694    

 Excitation energy:                      0.1582227893062174    

 Excitation energy / eV:                  4.305463002933922    

 Excitation energy / nm:                  287.9695956555202    

 Excitation energy / cm^(-1):             34725.88825130599    


 Oscillator strength:

    velocity representation:             0.1558484021983313E-03

    length representation:               0.3972119943061083E-04

    mixed representation:                0.6420820477112702E-04


 Rotatory strength:

    velocity representation:            -0.4065285247963766E-05

    velocity rep. / 10^(-40)erg*cm^3:   -0.2626370070837356    

    length representation:              -0.4338080350181589E-05

    length rep. / 10^(-40)erg*cm^3:     -0.2802608845790422    


 Dominant contributions:

      occ. orbital   energy / eV   virt. orbital     energy / eV   |coeff.|^2*100
       81 a              -2.10          85 a               3.45       97.6
 

 Change of electron number:

            -0.000000


 Electric transition dipole moment (velocity rep.):

    x       -0.002641        Norm:                  0.038438
    y        0.007266
    z       -0.037653        Norm / debye:          0.097701


 Electric transition dipole moment (length rep.):

    x       -0.002692        Norm:                  0.019405
    y        0.007322
    z        0.017768        Norm / debye:          0.049324


 Magnetic transition dipole moment / i:

    x       -0.000053        Norm:                  0.000604
    y       -0.000601
    z       -0.000004        Norm / Bohr mag.:      0.165503


 Electric quadrupole transition moment:

   xx       -0.014480
   yy        0.081566        1/3*trace:             0.022428
   zz        0.000197
   xy       -0.073030
   xz       -0.381795        Anisotropy:            0.741379
   yz        0.171573
 

 Excited state no.    1 chosen for optimization


                       ----------------------
                        CPKS right-hand side 
                       ----------------------


          IRREP   tensor space dimension   number of roots

           a             15471                   1

                          ----------------
                           CPKS equations 
                          ----------------


 logfile dipl_a    will be constructed

 Switching to coarse grid

 preparing numerical integration ....
          Overall gridpoints after grid construction =        122153


                       Nonorthonormal Krylov Space Iteration


 total number of roots to be determined:   1


 maximum core memory set to  5000 MB,
 corresponding to     7544 vectors in CAO basis


 maximum number of simultaneously treated vectors (including degeneracy):        1


 Iteration IRREP Converged      Max. Euclidean
                 roots          residual norm

    1       a        0        9.369703229614341D-02
 
    2       a        0        4.535089742920120D-02
 
    3       a        0        2.382662502276651D-02
 
    4       a        0        2.100138776638786D-02
 
    5       a        0        1.087861287452888D-02
 
    6       a        0        1.347702677082161D-02
 
    7       a        0        5.600207664625782D-02
 
    8       a        0        5.614855320756209D-03
 
    9       a        0        5.684433118360368D-03
 
   10       a        0        1.134747889261015D-02
 
   11       a        0        6.901847283104712D-03
 
   12       a        0        4.388207620846358D-03
 
   13       a        0        6.268572016157792D-02
 
   14       a        0        3.549293919926878D-03
 
   15       a        0        3.000594597354971D-03
 
   16       a        0        6.856004431667943D-03
 
   17       a        0        4.457367013114013D-03
 
   18       a        0        2.571713266370850D-03
 
   19       a        0        5.100037933639412D-03
 
   20       a        0        1.131374956613120D-02
 
   21       a        0        3.336472072843286D-03
 
   22       a        0        3.111174739127748D-03
 
   23       a        0        5.113428867666026D-03
 
   24       a        0        3.534856421470538D-02
 
   25       a        0        8.218802702355432D-03
 
   26       a        0        3.895058438250393D-03
 
   27       a        0        6.482856457677835D-03
 
   28       a        0        3.646203695704122D-02
 
   29       a        0        6.250428496762911D-03
 
   30       a        0        4.473166074824979D-03
 
   31       a        0        9.041584156233588D-02
 
   32       a        0        3.813599092118277D-03
 
   33       a        0        3.444562811899975D-03
 
   34       a        0        7.646480151226448D-03
 
   35       a        0        1.293586620345153D-02
 
   36       a        0        3.612514136939011D-03
 
   37       a        0        4.467187331888688D-03
 
   38       a        0        6.052367952050068D-03
 
   39       a        0        1.277832621231666D-02
 
   40       a        0        2.852455280499352D-02
 
   41       a        0        5.497389825317270D-03
 
   42       a        0        3.690231027867771D-03
 
   43       a        0        6.698872641559058D-03
 
   44       a        0        1.660733249860313D-02
 
   45       a        0        4.426934833613863D-03
 
   46       a        0        4.514058637208503D-03
 
   47       a        0        1.600964722197563D-02
 
   48       a        0        2.805200906896840D-03
 
   49       a        0        3.259218618402439D-03
 
   50       a        0        9.057869925692640D-03
 


 Warning! No convergence within  50 iterations.
 Unless you have specified a very low $escfiterlimit/$forceiterlimit, 
 this is a reason to worry!



 IRREP   Vector     Frequency            Euclidean residual norm

  a         1    0.000000000000000D+00    9.057869925692640D-03
 
 
 twoint has not been removed


    ------------------------------------------------------------------------
         total  cpu-time : 18 minutes and  2 seconds
         total wall-time : 18 minutes and  2 seconds
    ------------------------------------------------------------------------

   ****  egrad : all done  ****


    2018-02-07 16:08:42.350 

error in gradient step (1)
