
Tue Feb  6 15:37:18 PST 2018
jobex WAS CALLED AS: jobex -ri -c 40 -outfile gs_opt.out
AN OPTIMIZATION WITH MAX. 40 CYCLES WILL BE PERFORMED
CONVERGENCY CRITERION FOR TOTAL SCF-ENERGY IS 10**(-6)
CONVERGENCY CRITERION FOR MAXIMUM NORM OF SCF-ENERGY GRADIENT IS 10**(-3)
CONVERGENCY CRITERION FOR MAXIMUM NORM OF BASIS SET GRADIENT IS 10**(-3)
PROCEDURE WILL START WITH A dscf like STEP
LOAD MODULES WILL BE TAKEN FROM DIRECTORY /sopt/TURBOMOLE/7.2-official/bin/em64t-unknown-linux-gnu_smp
DSCF  = /sopt/TURBOMOLE/7.2-official/bin/em64t-unknown-linux-gnu_smp/ridft
GRAD  = /sopt/TURBOMOLE/7.2-official/bin/em64t-unknown-linux-gnu_smp/rdgrad
STATPT = /sopt/TURBOMOLE/7.2-official/bin/em64t-unknown-linux-gnu_smp/statpt

           Doing BLAS/Lapack in the master proc. with  8 CPUs.
           SMPCPUS    set: Shared-memory Parallelization with   8 CPUs.

           SMP Parallelization Reference:
           C. van Wullen, J. Comput. Chem. 32 (2011) 1195--1201
 operating system is UNIX !

 ridft (c-12-18.gp.local) : TURBOMOLE V7.2 ( 21285 ) 30 Jun 2017 at 11:51:10
 Copyright (C) 2017 TURBOMOLE GmbH, Karlsruhe


    2018-02-06 15:37:18.341 



                                  r i d f t

                        DFT program with RI approximation 
                                for coulomb part 




                                                 
                                 References:     
                                                 
          TURBOMOLE:                             
              R. Ahlrichs, M. Baer, M. Haeser, H. Horn, and
              C. Koelmel
              Electronic structure calculations on workstation
              computers: the program system TURBOMOLE
              Chem. Phys. Lett. 162: 165 (1989)
          Density Functional:                              
              O. Treutler and R. Ahlrichs                      
              Efficient Molecular Numerical Integration Schemes
              J. Chem. Phys. 102: 346 (1995)                   
          Parallel Version:                                
              Performance of parallel TURBOMOLE for Density    
              Functional Calculations                          
              M. v. Arnim and R. Ahlrichs                      
              J. Comp. Chem. 19: 1746 (1998)                   
          RI-J Method:                                     
              Auxiliary Basis Sets to approximate Coulomb      
              Potentials                                       
              Chem. Phys. Lett. 240: 283 (1995)                
              K. Eichkorn, O. Treutler, H. Oehm, M. Haeser     
              and R. Ahlrichs                                  
              Chem. Phys. Lett. 242: 652 (1995)                
                                                           
              Auxiliary Basis Sets for Main Row Atoms and their
              Use to approximate Coulomb Potentials            
              K. Eichkorn, F. Weigend, O. Treutler and         
              R. Ahlrichs                                      
              Theo. Chem. Acc. 97: 119 (1997)                   
                                                           
              Accurate Coulomb-fitting basis sets for H to Rn 
              F. Weigend                                        
              Phys. Chem. Chem. Phys. 8: 1057 (2006)            
                                                           
          Multipole accelerated RI-J (MARI-J):             
              Fast evaluation of the Coulomb potential for     
              electron densities using multipole accelerated   
              resolution of identity approximation             
              M. Sierka, A. Hogekamp and R. Ahlrichs           
              J. Chem. Phys. 118: 9136 (2003)                  
          RI-JK Method:                                     
              A fully direct RI-HF algorithm: Implementation,
              optimised auxiliary basis sets, demonstration of
              accuracy and efficiency                         
              F. Weigend                                      
              Phys. Chem. Chem. Phys. 4: 4285 (2002)           
          Two-component HF and DFT with spin-orbit coupling:  
              Self-consistent treatment of spin-orbit         
              interactions with efficient Hartree-Fock and    
              density functional methods                      
              M. K. Armbruster, F. Weigend, C. van Wüllen and 
              W. Klopper                                      
              Phys. Chem. Chem. Phys. 10: 1748 (2008)         
          Relativistic all-electron 2c calculations           
              An efficient implementation of two-component    
              relativistic exact-decoupling methods for large 
              molecules                                       
              D. Peng, N. Middendorf, F. Weigend, M. Reiher   
              J. Chem. Phys. 138, 184105 (2013)               
                                         




              +--------------------------------------------------+
              |      general information about current run       |
              +--------------------------------------------------+

 

 DENSITY CONVERGENCE CHECK SWITCHED ON !
 SCF CONVERGENCE IF RMS(delta[D]) <     0.1000000000E-06

 PBE0 hybrid functional
 exchange:    3/4 (LDA+PBE) + 1/4 HF
 correlation: LDA (PW) + PBE
 A Hybrid-DFT calculation using the RI-J approximation will be carried out.
 Allocatable memory for RI due to $ricore (MB):                  5000


              +--------------------------------------------------+
              | Atomic coordinate, charge and isotop information |
              +--------------------------------------------------+

                    atomic coordinates            atom    charge  isotop
        -12.87231950    6.53765798    0.00554351    o      8.000     0
        -10.81234737    5.42492147    0.00252940    c      6.000     0
         -8.38069559    6.69947655    0.00864814    c      6.000     0
         -6.14747092    5.36742466    0.00500286    c      6.000     0
         -6.11147844    2.64727747   -0.00512739    c      6.000     0
         -8.45412941    1.32936564   -0.01140601    c      6.000     0
        -10.66227798    2.65482579   -0.00773862    c      6.000     0
         -3.05337338    6.47074259    0.01097496    s     16.000     0
         -2.00003908    3.29684172   -0.00024113    c      6.000     0
         -3.81870377    1.59454165   -0.00768400    n      7.000     0
          0.60143879    2.67691669   -0.00096678    c      6.000     0
          1.44439384   -0.58242210   -0.01254268    s     16.000     0
          2.43735818    4.32763498    0.00631698    n      7.000     0
          4.79140080    3.25254579    0.00380837    c      6.000     0
          4.72369796    0.34060367   -0.00705208    c      6.000     0
          5.70931902   -0.37068962    1.67559049    h      1.000     0
          5.71149371   -0.35815866   -1.69366969    h      1.000     0
          6.78918752    4.38140752    0.00925210    o      8.000     0
         -8.34232111   10.26694973    0.02205178    br    35.000     0
         -8.42325393   -0.73346564   -0.01906016    h      1.000     0
        -12.48528412    1.68768644   -0.01240605    h      1.000     0
 
       center of nuclear mass  :   -4.12669570    5.09383439    0.00526777
       center of nuclear charge:   -3.97676099    4.87410371    0.00453863

              +--------------------------------------------------+
              |               basis set information              |
              +--------------------------------------------------+

              we will work with the 1s 3p 5d 7f 9g ... basis set
              ...i.e. with spherical basis functions...

   type   atoms  prim   cont   basis
   ---------------------------------------------------------------------------
    o        2     24     14   def2-SV(P)   [3s2p1d|7s4p1d]
    c       10     24     14   def2-SV(P)   [3s2p1d|7s4p1d]
    s        2     36     18   def2-SV(P)   [4s3p1d|10s7p1d]
    n        2     24     14   def2-SV(P)   [3s2p1d|7s4p1d]
    h        4      4      2   def2-SV(P)   [2s|4s]
    br       1     74     32   def2-SV(P)   [5s4p3d|14s10p6d]
   ---------------------------------------------------------------------------
   total:   21    498    272
   ---------------------------------------------------------------------------

   total number of primitive shells          :   88
   total number of contracted shells         :  120
   total number of cartesian basis functions :  291
   total number of SCF-basis functions       :  272


 integral neglect threshold       :  0.11E-10
 integral storage threshold THIZE :  0.10E-04
 integral storage threshold THIME :         5

 RI-J AUXILIARY BASIS SET information:

              we will work with the 1s 3p 5d 7f 9g ... basis set
              ...i.e. with spherical basis functions...

   type   atoms  prim   cont   basis
   ---------------------------------------------------------------------------
    o        2     70     49   def2-SV(P)   [6s4p3d1f1g|12s5p4d2f1g]
    c       10     70     49   def2-SV(P)   [6s4p3d1f1g|12s5p4d2f1g]
    s        2     77     51   def2-SV(P)   [8s4p3d1f1g|14s5p5d2f1g]
    n        2     70     49   def2-SV(P)   [6s4p3d1f1g|12s5p4d2f1g]
    h        4     16     11   def2-SV(P)   [3s1p1d|5s2p1d]
    br       1     89     58   def2-SV(P)   [8s4p3d2f1g|19s5p5d3f1g]
   ---------------------------------------------------------------------------
   total:   21   1287    890
   ---------------------------------------------------------------------------

   total number of primitive shells          :  140
   total number of contracted shells         :  282
   total number of cartesian basis functions : 1101
   total number of SCF-basis functions       :  890


 symmetry group of the molecule :   c1 

 the group has the following generators :
   c1(z)

    1 symmetry operations found

 there are 1 real representations :   a   

 maximum number of shells which are related by symmetry :  1


    mo occupation :
   irrep   mo's   occupied
    a      272       81
 
 number of basis functions   :                    272
 number of occupied orbitals :                     81
 
  
           ------------------
           density functional
           ------------------
 PBE0 hybrid functional
 exchange:    3/4 (LDA+PBE) + 1/4 HF
 correlation: LDA (PW) + PBE

 iterations will be done with small grid
  
 spherical integration : Lebedev's spherical grid
 spherical gridsize    :                     5
    i.e. gridpoints    :                   590
 value for diffuse not defined
 radial integration    : Chebyshev 2nd kind (scaling 3)
 radial gridsize       :                     8
 integration cells     :                    21
 partition function    : becke
 partition sharpness   :                     3
  

 biggest AO integral is expected to be    21.668154127
  
           ------------------------
               RI-J - INFORMATION
           ------------------------
 Contributions to RI integral batches: 
  neglected integral batches:                  2250
  direct contribution:                            0
  memory contribution:                  5010
 Memory core needed for (P|Q) and Cholesky      7 MByte
 Memory core minimum needed except of (P|Q)     1 MByte
 Total minimum memory core needed (sum)         7 MByte
  
 ****************************************
 Memory allocated for RI-J   250 MByte
 ****************************************
                                            

          ------------------------
          nuclear repulsion energy  :   1708.81245849    
          ------------------------


         -----------------
         -S,T+V- integrals
         -----------------

 1e-integrals will be neglected if expon. factor < 0.114844E-11
 Difference densities >>NOT<< switched on in parallel ridft!

 DIIS switched on: error vector is FDS-SDF
 Max. Iterations for DIIS is     :   4
 DIIS matrix (see manual) 
    Scaling factor of diagonals  :  1.200
    threshold for scaling factor :  0.000

 scf convergence criterion : increment of total energy < .1000000D-06
                  and increment of one-electron energy < .1000000D-03

  MOs are in ASCII format !


 automatic virtual orbital shift switched on 
      shift if e(lumo)-e(homo) < 0.10000000    


 reading orbital data $scfmo  from file mos
 orbital characterization : expanded
 mo provided and orthogonalized by Cholesky decomposition

 DSCF restart information will be dumped onto file mos


 Starting SCF iterations

          Overall gridpoints after grid construction =        122151

 ITERATION  ENERGY          1e-ENERGY        2e-ENERGY     RMS[dD(SAO)]   TOL
   1  -4008.5745077982    -8959.6214399     3242.2344736    0.000D+00 0.115D-10
                            Exc = -172.646305218     Coul =  3470.53242005    
                            exK = -55.6516412325    
                              N = 162.00009226    
                            current damping = 0.700
 
          max. resid. norm for Fia-block=  9.003D-01 for orbital      2a         
          max. resid. fock norm         =  1.627D+00 for orbital      2a         

 ITERATION  ENERGY          1e-ENERGY        2e-ENERGY     RMS[dD(SAO)]   TOL
   2  -4011.0801635076    -8970.3512523     3250.4586303    0.104D-01 0.115D-10
                            Exc = -172.489834483     Coul =  3478.53502483    
                            exK = -55.5865600506    
                              N = 162.00005811    
                            current damping = 0.650
 
          Norm of current diis error:  2.0291    
          max. resid. norm for Fia-block=  3.807D-01 for orbital      3a         
          max. resid. fock norm         =  6.733D-01 for orbital      3a         

 ITERATION  ENERGY          1e-ENERGY        2e-ENERGY     RMS[dD(SAO)]   TOL
   3  -4011.5236096271    -8975.6957975     3255.3597294    0.620D-02 0.115D-10
                            Exc = -172.725677905     Coul =  3483.74929480    
                            exK = -55.6638874853    
                              N = 162.00004480    
                            current damping = 0.550
 
          Norm of current diis error: 0.98550    
          max. resid. norm for Fia-block=  1.508D-01 for orbital      3a         
          max. resid. fock norm         =  2.644D-01 for orbital      3a         

 ITERATION  ENERGY          1e-ENERGY        2e-ENERGY     RMS[dD(SAO)]   TOL
   4  -4011.6887332938    -8977.4217231     3256.9205313    0.500D-02 0.115D-10
                            Exc = -172.681940065     Coul =  3485.24655278    
                            exK = -55.6440814193    
                              N = 162.00003947    
                            current damping = 0.450
 
          Norm of current diis error: 0.38731    
          max. resid. norm for Fia-block=  5.366D-02 for orbital      3a         
          max. resid. fock norm         =  9.387D-02 for orbital      3a         

 ITERATION  ENERGY          1e-ENERGY        2e-ENERGY     RMS[dD(SAO)]   TOL
   5  -4011.7208217723    -8977.9342871     3257.4010069    0.244D-02 0.115D-10
                            Exc = -172.765460673     Coul =  3485.83981383    
                            exK = -55.6733462787    
                              N = 162.00003811    
                            current damping = 0.300
 
          Norm of current diis error: 0.18720    
          max. resid. norm for Fia-block=  1.907D-02 for orbital     81a         
          max. resid. fock norm         =  2.854D-02 for orbital      3a         
          mo-orthogonalization: Cholesky decomposition

 ITERATION  ENERGY          1e-ENERGY        2e-ENERGY     RMS[dD(SAO)]   TOL
   6  -4011.7296118289    -8978.5459109     3258.0038405    0.169D-02 0.115D-10
                            Exc = -172.735705741     Coul =  3486.40158973    
                            exK = -55.6620434368    
                              N = 162.00003786    
                            current damping = 0.200
 
          Norm of current diis error: 0.11244    
          max. resid. norm for Fia-block=  8.557D-03 for orbital     80a         
          max. resid. fock norm         =  1.512D-02 for orbital    254a         

 ITERATION  ENERGY          1e-ENERGY        2e-ENERGY     RMS[dD(SAO)]   TOL
   7  -4011.7318371919    -8978.3282670     3257.7839713    0.753D-03 0.115D-10
                            Exc = -172.748582073     Coul =  3486.20044633    
                            exK = -55.6678929607    
                              N = 162.00003811    
                            current damping = 0.250
 
          Norm of current diis error: 0.36961E-01
          max. resid. norm for Fia-block=  3.936D-03 for orbital     81a         
          max. resid. fock norm         =  5.099D-03 for orbital    249a         

 ITERATION  ENERGY          1e-ENERGY        2e-ENERGY     RMS[dD(SAO)]   TOL
   8  -4011.7319687337    -8978.4108814     3257.8664542    0.351D-03 0.115D-10
                            Exc = -172.754389917     Coul =  3486.29060800    
                            exK = -55.6697639151    
                              N = 162.00003832    
                            current damping = 0.300
 
          Norm of current diis error: 0.35992E-01
          max. resid. norm for Fia-block=  1.618D-03 for orbital     79a         
          max. resid. fock norm         =  3.185D-03 for orbital    241a         

 ITERATION  ENERGY          1e-ENERGY        2e-ENERGY     RMS[dD(SAO)]   TOL
   9  -4011.7322034810    -8978.4074536     3257.8627916    0.148D-03 0.115D-10
                            Exc = -172.754159518     Coul =  3486.28676034    
                            exK = -55.6698092184    
                              N = 162.00003827    
                            current damping = 0.350
 
          Norm of current diis error: 0.85753E-02
          max. resid. norm for Fia-block=  7.895D-04 for orbital     78a         
          max. resid. fock norm         =  1.151D-03 for orbital     78a         

 ITERATION  ENERGY          1e-ENERGY        2e-ENERGY     RMS[dD(SAO)]   TOL
  10  -4011.7322125616    -8978.4096383     3257.8649672    0.561D-04 0.115D-10
                            Exc = -172.751821955     Coul =  3486.28582172    
                            exK = -55.6690325356    
                              N = 162.00003832    
                            current damping = 0.400
 
          Norm of current diis error: 0.68390E-02
          max. resid. norm for Fia-block=  3.661D-04 for orbital     77a         
          max. resid. fock norm         =  5.828D-04 for orbital     69a         
          mo-orthogonalization: Cholesky decomposition

 ITERATION  ENERGY          1e-ENERGY        2e-ENERGY     RMS[dD(SAO)]   TOL
  11  -4011.7322191585    -8978.3946091     3257.8499315    0.308D-04 0.115D-10
                            Exc = -172.752827651     Coul =  3486.27222464    
                            exK = -55.6694655290    
                              N = 162.00003833    
                            current damping = 0.450
 
          Norm of current diis error: 0.27653E-02
          max. resid. norm for Fia-block=  1.529D-04 for orbital     81a         
          max. resid. fock norm         =  2.158D-04 for orbital     68a         

 ITERATION  ENERGY          1e-ENERGY        2e-ENERGY     RMS[dD(SAO)]   TOL
  12  -4011.7322203928    -8978.3995266     3257.8548478    0.120D-04 0.115D-10
                            Exc = -172.752599272     Coul =  3486.27681991    
                            exK = -55.6693728774    
                              N = 162.00003833    
                            current damping = 0.500
 
          Norm of current diis error: 0.88049E-03
          max. resid. norm for Fia-block=  7.022D-05 for orbital     80a         
          max. resid. fock norm         =  9.640D-05 for orbital     68a         

 ITERATION  ENERGY          1e-ENERGY        2e-ENERGY     RMS[dD(SAO)]   TOL
  13  -4011.7322205738    -8978.3991964     3257.8545173    0.586D-05 0.115D-10
                            Exc = -172.752771779     Coul =  3486.27673014    
                            exK = -55.6694410687    
                              N = 162.00003833    
                            current damping = 0.550
 
          Norm of current diis error: 0.30443E-03
          max. resid. norm for Fia-block=  2.779D-05 for orbital     79a         
          max. resid. fock norm         =  3.711D-05 for orbital     82a         

 ENERGY & DENSITY CONVERGED !

          Overall gridpoints after grid construction =        372226

 ITERATION  ENERGY          1e-ENERGY        2e-ENERGY     RMS[dD(SAO)]   TOL
  14  -4011.7322146611    -8978.3991970     3257.8545238    0.217D-05 0.115D-10
                            Exc = -172.752751048     Coul =  3486.27671591    
                            exK = -55.6694410493    
                              N = 162.00000328    
                            current damping = 0.600
 
          Norm of current diis error: 0.18397E-03
          max. resid. norm for Fia-block=  1.729D-05 for orbital     79a         
          max. resid. fock norm         =  2.242D-05 for orbital     41a         

 End of SCF iterations

   convergence criteria satisfied after   14 iterations


                  ------------------------------------------ 
                 |  total energy      =  -4011.73221466108  |
                  ------------------------------------------ 
                 :  kinetic energy    =   4002.44316219378  :
                 :  potential energy  =  -8014.17537685485  :
                 :  virial theorem    =      1.99768452829  :
                 :  wavefunction norm =      1.00000000000  :
                  .......................................... 


 <geterg> : there is no data group $energy 


 <skperg> : $end is missing 


 orbitals $scfmo  will be written to file mos

    irrep                 77a         78a         79a         80a         81a   
 eigenvalues H         -0.16609    -0.15669    -0.13599    -0.12515    -0.07748
            eV          -4.5197     -4.2637     -3.7004     -3.4054     -2.1084
 occupation              2.0000      2.0000      2.0000      2.0000      2.0000 

    irrep                 82a         83a         84a         85a         86a   
 eigenvalues H          0.02296     0.11012     0.11985     0.12589     0.13510
            eV           0.6247      2.9965      3.2614      3.4257      3.6762
 
 
 
 
 ==============================================================================
                           electrostatic moments
 ==============================================================================

 reference point for electrostatic moments:    0.00000   0.00000   0.00000

 
              nuc           elec       ->  total
 ------------------------------------------------------------------------------
                          charge      
 ------------------------------------------------------------------------------
         161.000000    -162.000000      -1.000000
 
 ------------------------------------------------------------------------------
                       dipole moment  
 ------------------------------------------------------------------------------
   x    -640.258519     644.901469       4.642950
   y     784.730698    -790.736954      -6.006256
   z       0.730720      -0.739099      -0.008379
 
   | dipole moment | =     7.5916 a.u. =    19.2959 debye 
 
 ------------------------------------------------------------------------------
                     quadrupole moment
 ------------------------------------------------------------------------------
  xx    7730.824089   -7904.612106    -173.788017
  yy    5898.818143   -6033.166780    -134.348636
  zz       5.702051     -98.436288     -92.734237
  xy   -4898.328105    4930.876097      32.547992
  xz      -6.424193       6.445125       0.020932
  yz      10.210645     -10.279038      -0.068393
 
     1/3  trace=    -133.623630
     anisotropy=      90.036658
 
 ==============================================================================
 


    ------------------------------------------------------------------------
         total  cpu-time :  4 minutes and 50 seconds
         total wall-time :  34.30 seconds
    ------------------------------------------------------------------------

   ****  ridft : all done  ****


    2018-02-06 15:37:52.628 

fine, there is no data group "$actual step"
next step = rdgrad

OPTIMIZATION CYCLE 1
Tue Feb  6 15:37:52 PST 2018
           Doing BLAS/Lapack in the master proc. with  8 CPUs.
           SMPCPUS    set: Shared-memory Parallelization with   8 CPUs.

           SMP Parallelization Reference:
           C. van Wullen, J. Comput. Chem. 32 (2011) 1195--1201
 operating system is UNIX !

 rdgrad (c-12-18.gp.local) : TURBOMOLE V7.2 ( 21287 ) 3 Jul 2017 at 09:33:16
 Copyright (C) 2017 TURBOMOLE GmbH, Karlsruhe


    2018-02-06 15:37:52.884 



                                 r d g r a d

                          gradient for ridft program 

                        by K.Eichkorn, O.Treutler, H.Oehm, 
                             M.Haeser and R.Ahlrichs
                  (Chemical Physics Letters 242 (1995) 652-660)
                    parallel version: M.v.Arnim  &  R.Ahlrichs
                            quantum chemistry group
                             university  karlsruhe
                                   germany




                          References             
                                                 
          Density Functional:                              
              O. Treutler and R. Ahlrichs                      
              Efficient Molecular Numerical Integration Schemes
              J. chem. Phys. 102: 346 (1995)                   
          Parallel Version:                                
              Performance of parallel TURBOMOLE for Density    
              Functional Calculations                          
              M. v.Arnim and R. Ahlrichs                      
              J. comp. Chem. 19: 1746 (1998)                   
          RI-J Method:                                     
              Auxiliary Basis Sets to approximate Coulomb      
              Potentials                                       
              Chem. Phys. Lett. 240: 283 (1995)                
              K. Eichkorn, O. Treutler, H. Oehm, M. Haeser     
              and R. Ahlrichs                                  
              Chem. Phys. Lett. 242: 652 (1995)                
                                                           
              Auxiliary Basis Sets for Main Row Atoms and their
              Use to approximate Coulomb Potentials            
              K. Eichkorn, F. Weigend, O. Treutler and         
              R. Ahlrichs                                      
              Theo. Chem. Acc. 97: 119 (1997)                   
                                         



 integral neglect threshold       :  0.11E-10
 integral storage threshold THIZE :  0.10E-04
 integral storage threshold THIME :         5


 DENSITY CONVERGENCE CHECK SWITCHED ON !
 SCF CONVERGENCE IF RMS(delta[D]) <     0.1000000000E-06

 PBE0 hybrid functional
 exchange:    3/4 (LDA+PBE) + 1/4 HF
 correlation: LDA (PW) + PBE
 A Hybrid-DFT calculation using the RI-J approximation will be carried out.
  
  
 AUXILIARY BASIS SET information:

 symmetry group of the molecule :   c1 

 the group has the following generators :
   c1(z)

    1 symmetry operations found

 there are 1 real representations :   a   

 maximum number of shells which are related by symmetry :  1


    mo occupation :
   irrep   mo's   occupied
    a      272       81
 
 number of basis functions   :                    272
 number of occupied orbitals :                     81
 

 number of off-diagonal lagrangians expected :  0

 biggest AO integral is expected to be    21.668154127
  
           ------------------
           density functional
           ------------------
 PBE0 hybrid functional
 exchange:    3/4 (LDA+PBE) + 1/4 HF
 correlation: LDA (PW) + PBE

 iterations will be done with small grid
  
 spherical integration : Lebedev's spherical grid
 spherical gridsize    :                     5
    i.e. gridpoints    :                   590
 value for diffuse not defined
 radial integration    : Chebyshev 2nd kind (scaling 3)
 radial gridsize       :                     8
 integration cells     :                    21
 partition function    : becke
 partition sharpness   :                     3
  
  
           ------------------------
             RDGRAD - INFORMATION
           ------------------------
  
 Threshold for integral neglect (rithr1): 1E-10
 Threshold for integral neglect (rithr2): 1E-10
 Contributions to RI integral batches: 
  neglected integral batches:                  2250
  direct contribution:                         5010
     
 ****************************************
 Memory allocated for RDGRAD: 8 MiB
 ****************************************
                                            
     

 nuclear repulsion energy  :   1708.81245849    

  MOs are in ASCII format !


 reading orbital data $scfmo  from file mos
 orbital characterization : scfconv=7
  Deviation of MOs from orthonormality   5.288903312650721E-011

    ----------------------------------------
     S+T+V CONTRIBUTIONS TO ENERGY GRADIENT 
    ----------------------------------------

 1e-integral 1st. derivatives will be neglected if expon. factor < 0.230075E-13


 setting up bound for integral derivative estimation

 increment for numerical differentiation : 0.00050000

 biggest AO integral is expected to be    21.668154127
 biggest cartesian 1st derivative AO integral is expected to be    83.347447328

 biggest 1-particle AO density matrix element is expected to be    3.2086379836

 setting up bound for integral derivative estimation

 increment for numerical differentiation : 0.00050000

 biggest AO integral is expected to be    21.668154127
 biggest cartesian 1st derivative AO integral is expected to be    83.347447328

 2e-integral 1st. derivatives will be neglected if expon. factor < 0.100000E-06
 outer boundary for 2e-integral derivative neglection is 0.161885E-08

          Overall gridpoints after grid construction =        372226

 Integrated ground state density     :   162.0000032769140    


          ------------------------------------------------
           cartesian gradient of the energy (hartree/bohr)
          ------------------------------------------------

  ATOM      1 o           2 c           3 c           4 c           5 c 
dE/dx -0.5999761D-02  0.1072287D-01 -0.3584013D-02 -0.6718579D-04 -0.2502703D-02
dE/dy  0.3021626D-02 -0.5264972D-02 -0.2020427D-03 -0.1031187D-02  0.4684865D-03
dE/dz  0.8166045D-05 -0.1268674D-04 -0.5359455D-05 -0.3152090D-05 -0.4660804D-06

  ATOM      6 c           7 c           8 s           9 c          10 n 
dE/dx  0.6278294D-03 -0.2263531D-02 -0.2251881D-03  0.2516457D-02 -0.3461667D-03
dE/dy -0.1083893D-02  0.1659866D-03 -0.7390991D-03  0.1429861D-02  0.1593989D-02
dE/dz -0.3898139D-05 -0.3407560D-06 -0.2342201D-05  0.7445051D-05  0.5889690D-05

  ATOM     11 c          12 s          13 n          14 c          15 c 
dE/dx -0.4730844D-02  0.5062295D-03  0.3286393D-02 -0.5891021D-02  0.4509148D-02
dE/dy -0.2632774D-02  0.1616007D-02 -0.5025736D-03 -0.5348506D-02  0.2551516D-04
dE/dz -0.1451292D-04  0.7621298D-05  0.2399655D-06 -0.2281413D-04  0.2737545D-05

  ATOM     16 h          17 h          18 o          19 br         20 h 
dE/dx -0.1482649D-02 -0.1483013D-02  0.4086210D-02  0.8516374D-03 -0.3483191D-03
dE/dy  0.1326224D-02  0.1312159D-02  0.2689049D-02  0.1159218D-02  0.1777167D-02
dE/dz -0.1973114D-02  0.1980431D-02  0.1202164D-04  0.5126185D-05  0.7092009D-05

  ATOM     21 h 
dE/dx  0.1803065D-02
dE/dy  0.2287491D-03
dE/dz  0.1496575D-05
 
 resulting FORCE  (fx,fy,fz) = (-.146D-04,0.899D-05,-.419D-06)
 resulting MOMENT (mx,my,mz) = (-.422D-05,-.225D-06,0.236D-04)


 exx =       0.005933 eyy =      -0.018730 ezz =      -0.006661
 eyz =      -0.000045 exz =       0.000018 exy =       0.003738


 **********************************************************************
  |maximum component of gradient| : 0.10722866E-01  (atom  2 c )       
   gradient norm                  : 0.20044217E-01
 **********************************************************************

 <getgrd> : data group $grad  is missing 

   ***  cartesian gradients written onto <gradient>  ***


     --- calculation of the energy gradient finished ---



    ------------------------------------------------------------------------
         total  cpu-time :  55.25 seconds
         total wall-time :   8.10 seconds
    ------------------------------------------------------------------------

   ****  rdgrad : all done  ****


    2018-02-06 15:38:00.967 

fine, there is no data group "$actual step"
next step = relax

 statpt (c-12-18.gp.local) : TURBOMOLE V7.2 ( 21287 ) 3 Jul 2017 at 09:33:16
 Copyright (C) 2017 TURBOMOLE GmbH, Karlsruhe


    2018-02-06 15:38:01.025 



                           this is S T A T P T   


                     hessian and coordinate update for
                          stationary point search 

                     by barbara unterreiner, marek sierka,
                           and reinhart ahlrichs

                          quantum chemistry group
                          universitaet  karlsruhe
                                  germany




              +--------------------------------------------------+
              | Atomic coordinate, charge and isotop information |
              +--------------------------------------------------+

                    atomic coordinates            atom    charge  isotop
        -12.87231950    6.53765798    0.00554351    o      8.000     0
        -10.81234737    5.42492147    0.00252940    c      6.000     0
         -8.38069559    6.69947655    0.00864814    c      6.000     0
         -6.14747092    5.36742466    0.00500286    c      6.000     0
         -6.11147844    2.64727747   -0.00512739    c      6.000     0
         -8.45412941    1.32936564   -0.01140601    c      6.000     0
        -10.66227798    2.65482579   -0.00773862    c      6.000     0
         -3.05337338    6.47074259    0.01097496    s     16.000     0
         -2.00003908    3.29684172   -0.00024113    c      6.000     0
         -3.81870377    1.59454165   -0.00768400    n      7.000     0
          0.60143879    2.67691669   -0.00096678    c      6.000     0
          1.44439384   -0.58242210   -0.01254268    s     16.000     0
          2.43735818    4.32763498    0.00631698    n      7.000     0
          4.79140080    3.25254579    0.00380837    c      6.000     0
          4.72369796    0.34060367   -0.00705208    c      6.000     0
          5.70931902   -0.37068962    1.67559049    h      1.000     0
          5.71149371   -0.35815866   -1.69366969    h      1.000     0
          6.78918752    4.38140752    0.00925210    o      8.000     0
         -8.34232111   10.26694973    0.02205178    br    35.000     0
         -8.42325393   -0.73346564   -0.01906016    h      1.000     0
        -12.48528412    1.68768644   -0.01240605    h      1.000     0
 
       center of nuclear mass  :   -4.12669570    5.09383439    0.00526777
       center of nuclear charge:   -3.97676099    4.87410371    0.00453863
  Keyword $statpt not found - using default options
 
        ***************  Stationary point options ******************
        ************************************************************
           Maximum allowed trust radius:           3.000000E-01
           Minimum allowed trust radius:           1.000000E-03
           Initial trust radius:                   1.500000E-01
           GDIIS used if gradient norm <           1.000000E-02
           Number of previous steps for GDIIS:       5
           Hessian update method:                  BFGS
                        *** Convergence criteria ***                
           Threshold for energy change:            1.000000E-06
           Threshold for max displacement element: 1.000000E-03
           Threshold for max gradient element :    1.000000E-03
           Threshold for RMS of displacement:      5.000000E-04
           Threshold for RMS of gradient:          5.000000E-04
        ************************************************************
 

 keyword $statp missing in file <control>

  Keyword $statpt not found - using default options
  actual coordinates :
       -12.872319497943         6.537657978918         0.005543511611
       -10.812347370828         5.424921469406         0.002529398429
        -8.380695593102         6.699476550485         0.008648142675
        -6.147470917479         5.367424662086         0.005002860964
        -6.111478437662         2.647277466338        -0.005127393916
        -8.454129405762         1.329365642701        -0.011406008993
       -10.662277982519         2.654825788403        -0.007738617487
        -3.053373376199         6.470742587580         0.010974962462
        -2.000039084865         3.296841722735        -0.000241129055
        -3.818703767277         1.594541651271        -0.007684004402
         0.601438789943         2.676916686897        -0.000966783890
         1.444393839328        -0.582422097923        -0.012542679262
         2.437358183730         4.327634982810         0.006316976517
         4.791400798904         3.252545786290         0.003808365076
         4.723697958686         0.340603671273        -0.007052079983
         5.709319016309        -0.370689623090         1.675590493329
         5.711493713142        -0.358158660130        -1.693669692215
         6.789187519192         4.381407517867         0.009252099147
        -8.342321113494        10.266949732163         0.022051781162
        -8.423253926368        -0.733465640053        -0.019060155722
       -12.485284121749         1.687686441333        -0.012406052062
  actual gradients :
        -0.005999761041         0.003021625763         0.000008166045
         0.010722866341        -0.005264972045        -0.000012686737
        -0.003584013013        -0.000202042709        -0.000005359455
        -0.000067185788        -0.001031186873        -0.000003152090
        -0.002502703224         0.000468486481        -0.000000466080
         0.000627829429        -0.001083892540        -0.000003898139
        -0.002263530597         0.000165986612        -0.000000340756
        -0.000225188116        -0.000739099080        -0.000002342201
         0.002516457021         0.001429861433         0.000007445051
        -0.000346166716         0.001593988564         0.000005889690
        -0.004730843681        -0.002632774022        -0.000014512919
         0.000506229509         0.001616006631         0.000007621298
         0.003286392627        -0.000502573600         0.000000239965
        -0.005891020710        -0.005348506444        -0.000022814128
         0.004509148022         0.000025515158         0.000002737545
        -0.001482648965         0.001326223603        -0.001973113956
        -0.001483012695         0.001312159032         0.001980430991
         0.004086210326         0.002689048642         0.000012021637
         0.000851637437         0.001159217634         0.000005126185
        -0.000348319063         0.001777166887         0.000007092009
         0.001803065118         0.000228749071         0.000001496575
     Number of symmetry restricted degrees of freedom:    63
     Constituted by:     3 translational degrees of freedom
                         3 rotational degrees of freedom
                      57 internal degrees of freedom


 keyword $optinfo  missing in file <control>

  *************************************************************************
   ATOM                      CARTESIAN COORDINATES
    1 o     -12.87231949794280      6.53765797891806      0.00554351161082
    2 c     -10.81234737082765      5.42492146940557      0.00252939842887
    3 c      -8.38069559310156      6.69947655048535      0.00864814267454
    4 c      -6.14747091747949      5.36742466208639      0.00500286096420
    5 c      -6.11147843766209      2.64727746633809     -0.00512739391636
    6 c      -8.45412940576243      1.32936564270106     -0.01140600899287
    7 c     -10.66227798251896      2.65482578840329     -0.00773861748678
    8 s      -3.05337337619898      6.47074258757997      0.01097496246196
    9 c      -2.00003908486546      3.29684172273509     -0.00024112905456
   10 n      -3.81870376727745      1.59454165127085     -0.00768400440154
   11 c       0.60143878994341      2.67691668689673     -0.00096678388958
   12 s       1.44439383932765     -0.58242209792295     -0.01254267926180
   13 n       2.43735818372956      4.32763498281032      0.00631697651701
   14 c       4.79140079890416      3.25254578628979      0.00380836507560
   15 c       4.72369795868649      0.34060367127347     -0.00705207998270
   16 h       5.70931901630862     -0.37068962308991      1.67559049332941
   17 h       5.71149371314235     -0.35815866013014     -1.69366969221534
   18 o       6.78918751919183      4.38140751786681      0.00925209914661
   19 br     -8.34232111349367     10.26694973216326      0.02205178116248
   20 h      -8.42325392636767     -0.73346564005314     -0.01906015572151
   21 h     -12.48528412174865      1.68768644133340     -0.01240605206239
  *************************************************************************
   ATOM                      CARTESIAN GRADIENTS  
    1 o      -0.00599976104125      0.00302162576270      0.00000816604451
    2 c       0.01072286634074     -0.00526497204529     -0.00001268673696
    3 c      -0.00358401301313     -0.00020204270923     -0.00000535945543
    4 c      -0.00006718578751     -0.00103118687329     -0.00000315208955
    5 c      -0.00250270322376      0.00046848648117     -0.00000046608039
    6 c       0.00062782942862     -0.00108389254026     -0.00000389813944
    7 c      -0.00226353059710      0.00016598661199     -0.00000034075598
    8 s      -0.00022518811602     -0.00073909908026     -0.00000234220069
    9 c       0.00251645702110      0.00142986143342      0.00000744505149
   10 n      -0.00034616671574      0.00159398856363      0.00000588968985
   11 c      -0.00473084368131     -0.00263277402177     -0.00001451291949
   12 s       0.00050622950898      0.00161600663080      0.00000762129762
   13 n       0.00328639262670     -0.00050257359995      0.00000023996548
   14 c      -0.00589102071032     -0.00534850644362     -0.00002281412818
   15 c       0.00450914802187      0.00002551515843      0.00000273754539
   16 h      -0.00148264896514      0.00132622360300     -0.00197311395640
   17 h      -0.00148301269545      0.00131215903201      0.00198043099111
   18 o       0.00408621032629      0.00268904864246      0.00001202163687
   19 br      0.00085163743666      0.00115921763388      0.00000512618452
   20 h      -0.00034831906302      0.00177716688731      0.00000709200880
   21 h       0.00180306511844      0.00022874907104      0.00000149657459
  *************************************************************************

  norm of actual CARTESIAN gradient:  2.00442E-02
  norm of actual INTERNAL  gradient:  1.32123E-02

  ENERGY =   -4011.7322146610 a.u.; # of cycle =    1


 keyword $hessapprox missing in file <control>

  Using approximate Hessian in internal coordinates
  Number of zero Hessian eigenvalues:   0
  Final step radius: 2.71016E-02

  Transforming internal coordinate displacements to Cartesian space
      Iteration   1 residual norm     2.710156E-02
      Iteration   2 residual norm     7.527311E-05
      Iteration   3 residual norm     2.930951E-10
      Transformation converged
      Residual norm:    2.930951E-10 after    3 iterations

      ****************************************************************** 
                          CONVERGENCE INFORMATION

                               Converged?     Value      Criterion
             Energy change         no    4011.7322147   0.0000010
             RMS of displacement   no       0.0035897   0.0005000
             RMS of gradient       no       0.0017500   0.0005000
             MAX displacement      no       0.0105938   0.0010000
             MAX gradient          no       0.0067141   0.0010000
      ****************************************************************** 


    ------------------------------------------------------------------------
         total  cpu-time :   0.07 seconds
         total wall-time :   0.09 seconds
    ------------------------------------------------------------------------

   ****  statpt : all done  ****


    2018-02-06 15:38:01.102 

fine, there is no data group "$actual step"
next step = ridft
           Doing BLAS/Lapack in the master proc. with  8 CPUs.
           SMPCPUS    set: Shared-memory Parallelization with   8 CPUs.

           SMP Parallelization Reference:
           C. van Wullen, J. Comput. Chem. 32 (2011) 1195--1201
 operating system is UNIX !

 ridft (c-12-18.gp.local) : TURBOMOLE V7.2 ( 21285 ) 30 Jun 2017 at 11:51:10
 Copyright (C) 2017 TURBOMOLE GmbH, Karlsruhe


    2018-02-06 15:38:01.318 



                                  r i d f t

                        DFT program with RI approximation 
                                for coulomb part 




                                                 
                                 References:     
                                                 
          TURBOMOLE:                             
              R. Ahlrichs, M. Baer, M. Haeser, H. Horn, and
              C. Koelmel
              Electronic structure calculations on workstation
              computers: the program system TURBOMOLE
              Chem. Phys. Lett. 162: 165 (1989)
          Density Functional:                              
              O. Treutler and R. Ahlrichs                      
              Efficient Molecular Numerical Integration Schemes
              J. Chem. Phys. 102: 346 (1995)                   
          Parallel Version:                                
              Performance of parallel TURBOMOLE for Density    
              Functional Calculations                          
              M. v. Arnim and R. Ahlrichs                      
              J. Comp. Chem. 19: 1746 (1998)                   
          RI-J Method:                                     
              Auxiliary Basis Sets to approximate Coulomb      
              Potentials                                       
              Chem. Phys. Lett. 240: 283 (1995)                
              K. Eichkorn, O. Treutler, H. Oehm, M. Haeser     
              and R. Ahlrichs                                  
              Chem. Phys. Lett. 242: 652 (1995)                
                                                           
              Auxiliary Basis Sets for Main Row Atoms and their
              Use to approximate Coulomb Potentials            
              K. Eichkorn, F. Weigend, O. Treutler and         
              R. Ahlrichs                                      
              Theo. Chem. Acc. 97: 119 (1997)                   
                                                           
              Accurate Coulomb-fitting basis sets for H to Rn 
              F. Weigend                                        
              Phys. Chem. Chem. Phys. 8: 1057 (2006)            
                                                           
          Multipole accelerated RI-J (MARI-J):             
              Fast evaluation of the Coulomb potential for     
              electron densities using multipole accelerated   
              resolution of identity approximation             
              M. Sierka, A. Hogekamp and R. Ahlrichs           
              J. Chem. Phys. 118: 9136 (2003)                  
          RI-JK Method:                                     
              A fully direct RI-HF algorithm: Implementation,
              optimised auxiliary basis sets, demonstration of
              accuracy and efficiency                         
              F. Weigend                                      
              Phys. Chem. Chem. Phys. 4: 4285 (2002)           
          Two-component HF and DFT with spin-orbit coupling:  
              Self-consistent treatment of spin-orbit         
              interactions with efficient Hartree-Fock and    
              density functional methods                      
              M. K. Armbruster, F. Weigend, C. van Wüllen and 
              W. Klopper                                      
              Phys. Chem. Chem. Phys. 10: 1748 (2008)         
          Relativistic all-electron 2c calculations           
              An efficient implementation of two-component    
              relativistic exact-decoupling methods for large 
              molecules                                       
              D. Peng, N. Middendorf, F. Weigend, M. Reiher   
              J. Chem. Phys. 138, 184105 (2013)               
                                         




              +--------------------------------------------------+
              |      general information about current run       |
              +--------------------------------------------------+

 

 DENSITY CONVERGENCE CHECK SWITCHED ON !
 SCF CONVERGENCE IF RMS(delta[D]) <     0.1000000000E-06

 PBE0 hybrid functional
 exchange:    3/4 (LDA+PBE) + 1/4 HF
 correlation: LDA (PW) + PBE
 A Hybrid-DFT calculation using the RI-J approximation will be carried out.
 Allocatable memory for RI due to $ricore (MB):                  5000


              +--------------------------------------------------+
              | Atomic coordinate, charge and isotop information |
              +--------------------------------------------------+

                    atomic coordinates            atom    charge  isotop
        -12.86640985    6.54696468    0.00543564    o      8.000     0
        -10.81549426    5.43197423    0.00250891    c      6.000     0
         -8.37303309    6.69498527    0.00867671    c      6.000     0
         -6.14068239    5.36114443    0.00504589    c      6.000     0
         -6.10459059    2.63874078   -0.00508947    c      6.000     0
         -8.45422790    1.32832872   -0.01141188    c      6.000     0
        -10.66202628    2.65905422   -0.00773633    c      6.000     0
         -3.04886257    6.46657317    0.01089906    s     16.000     0
         -1.99822953    3.29117257   -0.00024590    c      6.000     0
         -3.81230467    1.58354307   -0.00766054    n      7.000     0
          0.60685614    2.68033162   -0.00091120    c      6.000     0
          1.44013502   -0.58216023   -0.01245648    s     16.000     0
          2.43346760    4.33801696    0.00634635    n      7.000     0
          4.79114493    3.26433383    0.00382019    c      6.000     0
          4.71664011    0.34251127   -0.00704946    c      6.000     0
          5.70574302   -0.37479954    1.67911315    h      1.000     0
          5.70781980   -0.36228018   -1.69726782    h      1.000     0
          6.78655456    4.38810062    0.00921357    o      8.000     0
         -8.35014898   10.26025537    0.02211755    br    35.000     0
         -8.42714393   -0.73869985   -0.01918003    h      1.000     0
        -12.49061190    1.69399331   -0.01234393    h      1.000     0
 
       center of nuclear mass  :   -4.12769259    5.09264137    0.00528501
       center of nuclear charge:   -3.97758762    4.87307244    0.00455377

              +--------------------------------------------------+
              |               basis set information              |
              +--------------------------------------------------+

              we will work with the 1s 3p 5d 7f 9g ... basis set
              ...i.e. with spherical basis functions...

   type   atoms  prim   cont   basis
   ---------------------------------------------------------------------------
    o        2     24     14   def2-SV(P)   [3s2p1d|7s4p1d]
    c       10     24     14   def2-SV(P)   [3s2p1d|7s4p1d]
    s        2     36     18   def2-SV(P)   [4s3p1d|10s7p1d]
    n        2     24     14   def2-SV(P)   [3s2p1d|7s4p1d]
    h        4      4      2   def2-SV(P)   [2s|4s]
    br       1     74     32   def2-SV(P)   [5s4p3d|14s10p6d]
   ---------------------------------------------------------------------------
   total:   21    498    272
   ---------------------------------------------------------------------------

   total number of primitive shells          :   88
   total number of contracted shells         :  120
   total number of cartesian basis functions :  291
   total number of SCF-basis functions       :  272


 integral neglect threshold       :  0.11E-10
 integral storage threshold THIZE :  0.10E-04
 integral storage threshold THIME :         5

 RI-J AUXILIARY BASIS SET information:

              we will work with the 1s 3p 5d 7f 9g ... basis set
              ...i.e. with spherical basis functions...

   type   atoms  prim   cont   basis
   ---------------------------------------------------------------------------
    o        2     70     49   def2-SV(P)   [6s4p3d1f1g|12s5p4d2f1g]
    c       10     70     49   def2-SV(P)   [6s4p3d1f1g|12s5p4d2f1g]
    s        2     77     51   def2-SV(P)   [8s4p3d1f1g|14s5p5d2f1g]
    n        2     70     49   def2-SV(P)   [6s4p3d1f1g|12s5p4d2f1g]
    h        4     16     11   def2-SV(P)   [3s1p1d|5s2p1d]
    br       1     89     58   def2-SV(P)   [8s4p3d2f1g|19s5p5d3f1g]
   ---------------------------------------------------------------------------
   total:   21   1287    890
   ---------------------------------------------------------------------------

   total number of primitive shells          :  140
   total number of contracted shells         :  282
   total number of cartesian basis functions : 1101
   total number of SCF-basis functions       :  890


 symmetry group of the molecule :   c1 

 the group has the following generators :
   c1(z)

    1 symmetry operations found

 there are 1 real representations :   a   

 maximum number of shells which are related by symmetry :  1


    mo occupation :
   irrep   mo's   occupied
    a      272       81
 
 number of basis functions   :                    272
 number of occupied orbitals :                     81
 
  
           ------------------
           density functional
           ------------------
 PBE0 hybrid functional
 exchange:    3/4 (LDA+PBE) + 1/4 HF
 correlation: LDA (PW) + PBE

 iterations will be done with small grid
  
 spherical integration : Lebedev's spherical grid
 spherical gridsize    :                     5
    i.e. gridpoints    :                   590
 value for diffuse not defined
 radial integration    : Chebyshev 2nd kind (scaling 3)
 radial gridsize       :                     8
 integration cells     :                    21
 partition function    : becke
 partition sharpness   :                     3
  

 biggest AO integral is expected to be    21.668154127
  
           ------------------------
               RI-J - INFORMATION
           ------------------------
 Contributions to RI integral batches: 
  neglected integral batches:                  2249
  direct contribution:                            0
  memory contribution:                  5011
 Memory core needed for (P|Q) and Cholesky      7 MByte
 Memory core minimum needed except of (P|Q)     1 MByte
 Total minimum memory core needed (sum)         7 MByte
  
 ****************************************
 Memory allocated for RI-J   250 MByte
 ****************************************
                                            

          ------------------------
          nuclear repulsion energy  :   1709.00279721    
          ------------------------


         -----------------
         -S,T+V- integrals
         -----------------

 1e-integrals will be neglected if expon. factor < 0.114844E-11
 Difference densities >>NOT<< switched on in parallel ridft!

 DIIS switched on: error vector is FDS-SDF
 Max. Iterations for DIIS is     :   4
 DIIS matrix (see manual) 
    Scaling factor of diagonals  :  1.200
    threshold for scaling factor :  0.000

 scf convergence criterion : increment of total energy < .1000000D-06
                  and increment of one-electron energy < .1000000D-03

  MOs are in ASCII format !


 automatic virtual orbital shift switched on 
      shift if e(lumo)-e(homo) < 0.10000000    


 reading orbital data $scfmo  from file mos
 orbital characterization : scfconv=7

 DSCF restart information will be dumped onto file mos


 Starting SCF iterations

          Overall gridpoints after grid construction =        122149

 ITERATION  ENERGY          1e-ENERGY        2e-ENERGY     RMS[dD(SAO)]   TOL
   1  -4011.7323401394    -8978.8070746     3258.0719372    0.000D+00 0.115D-10
                            Exc = -172.748789999     Coul =  3486.48878470    
                            exK = -55.6680574569    
                              N = 162.00004107    
                            current damping = 0.700
 
          max. resid. norm for Fia-block=  4.949D-03 for orbital      1a         
          max. resid. fock norm         =  8.246D-03 for orbital      1a         

 ITERATION  ENERGY          1e-ENERGY        2e-ENERGY     RMS[dD(SAO)]   TOL
   2  -4011.7324083676    -8978.7989132     3258.0637077    0.140D-03 0.115D-10
                            Exc = -172.750195610     Coul =  3486.48253038    
                            exK = -55.6686270991    
                              N = 162.00004117    
                            current damping = 0.650
 
          Norm of current diis error: 0.99585E-02
          max. resid. norm for Fia-block=  2.039D-03 for orbital      1a         
          max. resid. fock norm         =  3.396D-03 for orbital      1a         

 ITERATION  ENERGY          1e-ENERGY        2e-ENERGY     RMS[dD(SAO)]   TOL
   3  -4011.7324199702    -8978.8100214     3258.0748042    0.677D-04 0.115D-10
                            Exc = -172.748091290     Coul =  3486.49067559    
                            exK = -55.6677801121    
                              N = 162.00004118    
                            current damping = 0.600
 
          Norm of current diis error: 0.72068E-02
          max. resid. norm for Fia-block=  8.034D-04 for orbital      1a         
          max. resid. fock norm         =  1.338D-03 for orbital      1a         

 ITERATION  ENERGY          1e-ENERGY        2e-ENERGY     RMS[dD(SAO)]   TOL
   4  -4011.7324278947    -8978.7974181     3258.0621930    0.428D-04 0.115D-10
                            Exc = -172.749122316     Coul =  3486.47951612    
                            exK = -55.6682007747    
                              N = 162.00004120    
                            current damping = 0.650
 
          Norm of current diis error: 0.20778E-02
          max. resid. norm for Fia-block=  3.013D-04 for orbital      1a         
          max. resid. fock norm         =  5.017D-04 for orbital      1a         

 ITERATION  ENERGY          1e-ENERGY        2e-ENERGY     RMS[dD(SAO)]   TOL
   5  -4011.7324285127    -8978.8029615     3258.0677358    0.140D-04 0.115D-10
                            Exc = -172.749078656     Coul =  3486.48499003    
                            exK = -55.6681755799    
                              N = 162.00004121    
                            current damping = 0.700
 
          Norm of current diis error: 0.12707E-02
          max. resid. norm for Fia-block=  1.187D-04 for orbital      1a         
          max. resid. fock norm         =  1.976D-04 for orbital      1a         
          mo-orthogonalization: Cholesky decomposition

 ITERATION  ENERGY          1e-ENERGY        2e-ENERGY     RMS[dD(SAO)]   TOL
   6  -4011.7324290416    -8978.8011785     3258.0659523    0.652D-05 0.115D-10
                            Exc = -172.749078420     Coul =  3486.48321020    
                            exK = -55.6681795040    
                              N = 162.00004122    
                            current damping = 0.750
 
          Norm of current diis error: 0.42260E-03
          max. resid. norm for Fia-block=  4.888D-05 for orbital      1a         
          max. resid. fock norm         =  9.301D-05 for orbital    237a         

 ITERATION  ENERGY          1e-ENERGY        2e-ENERGY     RMS[dD(SAO)]   TOL
   7  -4011.7324290676    -8978.8004857     3258.0652595    0.268D-05 0.115D-10
                            Exc = -172.749058425     Coul =  3486.48248877    
                            exK = -55.6681708922    
                              N = 162.00004122    
                            current damping = 0.600
 
          Norm of current diis error: 0.24924E-03
          max. resid. norm for Fia-block=  2.095D-05 for orbital      1a         
          max. resid. fock norm         =  3.488D-05 for orbital      1a         

 ENERGY & DENSITY CONVERGED !

          Overall gridpoints after grid construction =        372237

 ITERATION  ENERGY          1e-ENERGY        2e-ENERGY     RMS[dD(SAO)]   TOL
   8  -4011.7324223921    -8978.8004529     3258.0652333    0.136D-05 0.115D-10
                            Exc = -172.749083136     Coul =  3486.48249976    
                            exK = -55.6681832873    
                              N = 162.00000326    
                            current damping = 0.450
 
          Norm of current diis error: 0.94528E-04
          max. resid. norm for Fia-block=  8.977D-06 for orbital     80a         
          max. resid. fock norm         =  1.407D-05 for orbital    264a         

 End of SCF iterations

   convergence criteria satisfied after    8 iterations


                  ------------------------------------------ 
                 |  total energy      =  -4011.73242239210  |
                  ------------------------------------------ 
                 :  kinetic energy    =   4002.42798722153  :
                 :  potential energy  =  -8014.16040961363  :
                 :  virial theorem    =      1.99768069398  :
                 :  wavefunction norm =      1.00000000000  :
                  .......................................... 


 orbitals $scfmo  will be written to file mos

    irrep                 77a         78a         79a         80a         81a   
 eigenvalues H         -0.16654    -0.15684    -0.13550    -0.12556    -0.07723
            eV          -4.5317     -4.2680     -3.6872     -3.4167     -2.1015
 occupation              2.0000      2.0000      2.0000      2.0000      2.0000 

    irrep                 82a         83a         84a         85a         86a   
 eigenvalues H          0.02326     0.11048     0.11996     0.12654     0.13484
            eV           0.6330      3.0063      3.2642      3.4434      3.6691
 
 
 
 
 ==============================================================================
                           electrostatic moments
 ==============================================================================

 reference point for electrostatic moments:    0.00000   0.00000   0.00000

 
              nuc           elec       ->  total
 ------------------------------------------------------------------------------
                          charge      
 ------------------------------------------------------------------------------
         161.000000    -162.000000      -1.000000
 
 ------------------------------------------------------------------------------
                       dipole moment  
 ------------------------------------------------------------------------------
   x    -640.391607     645.044648       4.653041
   y     784.564663    -790.565784      -6.001121
   z       0.733156      -0.741484      -0.008327
 
   | dipole moment | =     7.5937 a.u. =    19.3013 debye 
 
 ------------------------------------------------------------------------------
                     quadrupole moment
 ------------------------------------------------------------------------------
  xx    7731.090915   -7904.684462    -173.593547
  yy    5894.900703   -6029.281924    -134.381221
  zz       5.726101     -98.481656     -92.755554
  xy   -4897.299798    4929.879235      32.579438
  xz      -6.435178       6.455794       0.020616
  yz      10.219549     -10.287652      -0.068103
 
     1/3  trace=    -133.576774
     anisotropy=      89.926728
 
 ==============================================================================
 


    ------------------------------------------------------------------------
         total  cpu-time :  2 minutes and 51 seconds
         total wall-time :  21.37 seconds
    ------------------------------------------------------------------------

   ****  ridft : all done  ****


    2018-02-06 15:38:22.668 

fine, there is no data group "$actual step"
next step = rdgrad
 energy change  : actual value =   -4012.     threshold =   0.1000E-05
 geom. gradient : actual value =   0.6714E-02 threshold =   0.1000E-02

OPTIMIZATION CYCLE 2
Tue Feb  6 15:38:22 PST 2018
           Doing BLAS/Lapack in the master proc. with  8 CPUs.
           SMPCPUS    set: Shared-memory Parallelization with   8 CPUs.

           SMP Parallelization Reference:
           C. van Wullen, J. Comput. Chem. 32 (2011) 1195--1201
 operating system is UNIX !

 rdgrad (c-12-18.gp.local) : TURBOMOLE V7.2 ( 21287 ) 3 Jul 2017 at 09:33:16
 Copyright (C) 2017 TURBOMOLE GmbH, Karlsruhe


    2018-02-06 15:38:22.902 



                                 r d g r a d

                          gradient for ridft program 

                        by K.Eichkorn, O.Treutler, H.Oehm, 
                             M.Haeser and R.Ahlrichs
                  (Chemical Physics Letters 242 (1995) 652-660)
                    parallel version: M.v.Arnim  &  R.Ahlrichs
                            quantum chemistry group
                             university  karlsruhe
                                   germany




                          References             
                                                 
          Density Functional:                              
              O. Treutler and R. Ahlrichs                      
              Efficient Molecular Numerical Integration Schemes
              J. chem. Phys. 102: 346 (1995)                   
          Parallel Version:                                
              Performance of parallel TURBOMOLE for Density    
              Functional Calculations                          
              M. v.Arnim and R. Ahlrichs                      
              J. comp. Chem. 19: 1746 (1998)                   
          RI-J Method:                                     
              Auxiliary Basis Sets to approximate Coulomb      
              Potentials                                       
              Chem. Phys. Lett. 240: 283 (1995)                
              K. Eichkorn, O. Treutler, H. Oehm, M. Haeser     
              and R. Ahlrichs                                  
              Chem. Phys. Lett. 242: 652 (1995)                
                                                           
              Auxiliary Basis Sets for Main Row Atoms and their
              Use to approximate Coulomb Potentials            
              K. Eichkorn, F. Weigend, O. Treutler and         
              R. Ahlrichs                                      
              Theo. Chem. Acc. 97: 119 (1997)                   
                                         



 integral neglect threshold       :  0.11E-10
 integral storage threshold THIZE :  0.10E-04
 integral storage threshold THIME :         5


 DENSITY CONVERGENCE CHECK SWITCHED ON !
 SCF CONVERGENCE IF RMS(delta[D]) <     0.1000000000E-06

 PBE0 hybrid functional
 exchange:    3/4 (LDA+PBE) + 1/4 HF
 correlation: LDA (PW) + PBE
 A Hybrid-DFT calculation using the RI-J approximation will be carried out.
  
  
 AUXILIARY BASIS SET information:

 symmetry group of the molecule :   c1 

 the group has the following generators :
   c1(z)

    1 symmetry operations found

 there are 1 real representations :   a   

 maximum number of shells which are related by symmetry :  1


    mo occupation :
   irrep   mo's   occupied
    a      272       81
 
 number of basis functions   :                    272
 number of occupied orbitals :                     81
 

 number of off-diagonal lagrangians expected :  0

 biggest AO integral is expected to be    21.668154127
  
           ------------------
           density functional
           ------------------
 PBE0 hybrid functional
 exchange:    3/4 (LDA+PBE) + 1/4 HF
 correlation: LDA (PW) + PBE

 iterations will be done with small grid
  
 spherical integration : Lebedev's spherical grid
 spherical gridsize    :                     5
    i.e. gridpoints    :                   590
 value for diffuse not defined
 radial integration    : Chebyshev 2nd kind (scaling 3)
 radial gridsize       :                     8
 integration cells     :                    21
 partition function    : becke
 partition sharpness   :                     3
  
  
           ------------------------
             RDGRAD - INFORMATION
           ------------------------
  
 Threshold for integral neglect (rithr1): 1E-10
 Threshold for integral neglect (rithr2): 1E-10
 Contributions to RI integral batches: 
  neglected integral batches:                  2249
  direct contribution:                         5011
     
 ****************************************
 Memory allocated for RDGRAD: 8 MiB
 ****************************************
                                            
     

 nuclear repulsion energy  :   1709.00279721    

  MOs are in ASCII format !


 reading orbital data $scfmo  from file mos
 orbital characterization : scfconv=7
  Deviation of MOs from orthonormality   5.246856797811123E-011

    ----------------------------------------
     S+T+V CONTRIBUTIONS TO ENERGY GRADIENT 
    ----------------------------------------

 1e-integral 1st. derivatives will be neglected if expon. factor < 0.230075E-13


 setting up bound for integral derivative estimation

 increment for numerical differentiation : 0.00050000

 biggest AO integral is expected to be    21.668154127
 biggest cartesian 1st derivative AO integral is expected to be    83.347447328

 biggest 1-particle AO density matrix element is expected to be    3.2085286575

 setting up bound for integral derivative estimation

 increment for numerical differentiation : 0.00050000

 biggest AO integral is expected to be    21.668154127
 biggest cartesian 1st derivative AO integral is expected to be    83.347447328

 2e-integral 1st. derivatives will be neglected if expon. factor < 0.100000E-06
 outer boundary for 2e-integral derivative neglection is 0.161896E-08

          Overall gridpoints after grid construction =        372237

 Integrated ground state density     :   162.0000032642316    


          ------------------------------------------------
           cartesian gradient of the energy (hartree/bohr)
          ------------------------------------------------

  ATOM      1 o           2 c           3 c           4 c           5 c 
dE/dx -0.2283406D-02  0.4431103D-02 -0.1732360D-02  0.6292227D-03 -0.6436194D-03
dE/dy  0.1096511D-02 -0.1655840D-02 -0.1275633D-03 -0.7622377D-03 -0.1763821D-04
dE/dz  0.1906280D-05 -0.3762415D-05 -0.4333360D-05  0.1332921D-05  0.1775753D-05

  ATOM      6 c           7 c           8 s           9 c          10 n 
dE/dx  0.4875739D-03 -0.1219702D-02 -0.1946186D-03  0.1213496D-02 -0.5606107D-04
dE/dy -0.4374843D-03  0.7971888D-03 -0.7237394D-04  0.1170720D-02  0.2301610D-03
dE/dz -0.1772591D-05  0.7539321D-06 -0.3261103D-05  0.4448258D-05  0.1644536D-05

  ATOM     11 c          12 s          13 n          14 c          15 c 
dE/dx -0.1460187D-02 -0.1696402D-03  0.1347727D-02 -0.2724599D-02  0.1369163D-02
dE/dy -0.1923371D-02  0.4219006D-03  0.3045254D-03 -0.1765127D-02  0.3763060D-03
dE/dz -0.7941714D-05  0.2544714D-05  0.2438398D-05 -0.8847155D-05  0.1373628D-05

  ATOM     16 h          17 h          18 o          19 br         20 h 
dE/dx -0.5024663D-03 -0.5016252D-03  0.1626536D-02  0.4695265D-04 -0.1509977D-03
dE/dy  0.3038689D-03  0.3030515D-03  0.1147771D-02  0.3832469D-03  0.3147881D-03
dE/dz -0.2183248D-03  0.2202052D-03  0.5196613D-05  0.2656234D-05 -0.1023526D-05

  ATOM     21 h 
dE/dx  0.4736160D-03
dE/dy -0.7981714D-04
dE/dz  0.2581031D-05
 
 resulting FORCE  (fx,fy,fz) = (-.139D-04,0.859D-05,-.409D-06)
 resulting MOMENT (mx,my,mz) = (-.452D-05,0.265D-07,-.138D-05)


 exx =      -0.000884 eyy =      -0.002850 ezz =      -0.000740
 eyz =      -0.000010 exz =       0.000005 exy =       0.001757


 **********************************************************************
  |maximum component of gradient| : 0.44311031E-02  (atom  2 c )       
   gradient norm                  : 0.80279729E-02
 **********************************************************************
   ***  cartesian gradients written onto <gradient>  ***


     --- calculation of the energy gradient finished ---



    ------------------------------------------------------------------------
         total  cpu-time :  55.30 seconds
         total wall-time :   8.30 seconds
    ------------------------------------------------------------------------

   ****  rdgrad : all done  ****


    2018-02-06 15:38:31.189 

fine, there is no data group "$actual step"
next step = relax

 statpt (c-12-18.gp.local) : TURBOMOLE V7.2 ( 21287 ) 3 Jul 2017 at 09:33:16
 Copyright (C) 2017 TURBOMOLE GmbH, Karlsruhe


    2018-02-06 15:38:31.234 



                           this is S T A T P T   


                     hessian and coordinate update for
                          stationary point search 

                     by barbara unterreiner, marek sierka,
                           and reinhart ahlrichs

                          quantum chemistry group
                          universitaet  karlsruhe
                                  germany




              +--------------------------------------------------+
              | Atomic coordinate, charge and isotop information |
              +--------------------------------------------------+

                    atomic coordinates            atom    charge  isotop
        -12.86640985    6.54696468    0.00543564    o      8.000     0
        -10.81549426    5.43197423    0.00250891    c      6.000     0
         -8.37303309    6.69498527    0.00867671    c      6.000     0
         -6.14068239    5.36114443    0.00504589    c      6.000     0
         -6.10459059    2.63874078   -0.00508947    c      6.000     0
         -8.45422790    1.32832872   -0.01141188    c      6.000     0
        -10.66202628    2.65905422   -0.00773633    c      6.000     0
         -3.04886257    6.46657317    0.01089906    s     16.000     0
         -1.99822953    3.29117257   -0.00024590    c      6.000     0
         -3.81230467    1.58354307   -0.00766054    n      7.000     0
          0.60685614    2.68033162   -0.00091120    c      6.000     0
          1.44013502   -0.58216023   -0.01245648    s     16.000     0
          2.43346760    4.33801696    0.00634635    n      7.000     0
          4.79114493    3.26433383    0.00382019    c      6.000     0
          4.71664011    0.34251127   -0.00704946    c      6.000     0
          5.70574302   -0.37479954    1.67911315    h      1.000     0
          5.70781980   -0.36228018   -1.69726782    h      1.000     0
          6.78655456    4.38810062    0.00921357    o      8.000     0
         -8.35014898   10.26025537    0.02211755    br    35.000     0
         -8.42714393   -0.73869985   -0.01918003    h      1.000     0
        -12.49061190    1.69399331   -0.01234393    h      1.000     0
 
       center of nuclear mass  :   -4.12769259    5.09264137    0.00528501
       center of nuclear charge:   -3.97758762    4.87307244    0.00455377
  Keyword $statpt not found - using default options
 
        ***************  Stationary point options ******************
        ************************************************************
           Maximum allowed trust radius:           3.000000E-01
           Minimum allowed trust radius:           1.000000E-03
           Initial trust radius:                   1.500000E-01
           GDIIS used if gradient norm <           1.000000E-02
           Number of previous steps for GDIIS:       5
           Hessian update method:                  BFGS
                        *** Convergence criteria ***                
           Threshold for energy change:            1.000000E-06
           Threshold for max displacement element: 1.000000E-03
           Threshold for max gradient element :    1.000000E-03
           Threshold for RMS of displacement:      5.000000E-04
           Threshold for RMS of gradient:          5.000000E-04
        ************************************************************
 

 keyword $statp missing in file <control>

  Keyword $statpt not found - using default options
  actual coordinates :
       -12.866409849397         6.546964676333         0.005435644788
       -10.815494262548         5.431974234471         0.002508913042
        -8.373033088970         6.694985272322         0.008676710091
        -6.140682387424         5.361144425335         0.005045887454
        -6.104590593116         2.638740778793        -0.005089473964
        -8.454227900738         1.328328717705        -0.011411877264
       -10.662026281991         2.659054217680        -0.007736326034
        -3.048862570443         6.466573170634         0.010899060835
        -1.998229530435         3.291172573390        -0.000245897377
        -3.812304669939         1.583543068818        -0.007660541598
         0.606856137950         2.680331620788        -0.000911204376
         1.440135016111        -0.582160227437        -0.012456476080
         2.433467600200         4.338016956784         0.006346350251
         4.791144933457         3.264333830196         0.003820189070
         4.716640110532         0.342511274452        -0.007049455370
         5.705743020847        -0.374799542771         1.679113151542
         5.707819796240        -0.362280180810        -1.697267817206
         6.786554555961         4.388100617945         0.009213565732
        -8.350148980338        10.260255371986         0.022117554492
        -8.427143934368        -0.738699849693        -0.019180033112
       -12.490611897604         1.693993310441        -0.012343930530
  actual gradients :
        -0.002283406420         0.001096511375         0.000001906280
         0.004431103142        -0.001655839629        -0.000003762415
        -0.001732360010        -0.000127563261        -0.000004333360
         0.000629222683        -0.000762237691         0.000001332921
        -0.000643619362        -0.000017638212         0.000001775753
         0.000487573928        -0.000437484263        -0.000001772591
        -0.001219701624         0.000797188779         0.000000753932
        -0.000194618642        -0.000072373941        -0.000003261103
         0.001213496068         0.001170719968         0.000004448258
        -0.000056061066         0.000230160958         0.000001644536
[...]

   ****  statpt : all done  ****


    2018-02-06 15:40:29.502 

fine, there is no data group "$actual step"
next step = ridft
           Doing BLAS/Lapack in the master proc. with  8 CPUs.
           SMPCPUS    set: Shared-memory Parallelization with   8 CPUs.

           SMP Parallelization Reference:
           C. van Wullen, J. Comput. Chem. 32 (2011) 1195--1201
 operating system is UNIX !

 ridft (c-12-18.gp.local) : TURBOMOLE V7.2 ( 21285 ) 30 Jun 2017 at 11:51:10
 Copyright (C) 2017 TURBOMOLE GmbH, Karlsruhe


    2018-02-06 15:40:29.714 



                                  r i d f t

                        DFT program with RI approximation 
                                for coulomb part 




                                                 
                                 References:     
                                                 
          TURBOMOLE:                             
              R. Ahlrichs, M. Baer, M. Haeser, H. Horn, and
              C. Koelmel
              Electronic structure calculations on workstation
              computers: the program system TURBOMOLE
              Chem. Phys. Lett. 162: 165 (1989)
          Density Functional:                              
              O. Treutler and R. Ahlrichs                      
              Efficient Molecular Numerical Integration Schemes
              J. Chem. Phys. 102: 346 (1995)                   
          Parallel Version:                                
              Performance of parallel TURBOMOLE for Density    
              Functional Calculations                          
              M. v. Arnim and R. Ahlrichs                      
              J. Comp. Chem. 19: 1746 (1998)                   
          RI-J Method:                                     
              Auxiliary Basis Sets to approximate Coulomb      
              Potentials                                       
              Chem. Phys. Lett. 240: 283 (1995)                
              K. Eichkorn, O. Treutler, H. Oehm, M. Haeser     
              and R. Ahlrichs                                  
              Chem. Phys. Lett. 242: 652 (1995)                
                                                           
              Auxiliary Basis Sets for Main Row Atoms and their
              Use to approximate Coulomb Potentials            
              K. Eichkorn, F. Weigend, O. Treutler and         
              R. Ahlrichs                                      
              Theo. Chem. Acc. 97: 119 (1997)                   
                                                           
              Accurate Coulomb-fitting basis sets for H to Rn 
              F. Weigend                                        
              Phys. Chem. Chem. Phys. 8: 1057 (2006)            
                                                           
          Multipole accelerated RI-J (MARI-J):             
              Fast evaluation of the Coulomb potential for     
              electron densities using multipole accelerated   
              resolution of identity approximation             
              M. Sierka, A. Hogekamp and R. Ahlrichs           
              J. Chem. Phys. 118: 9136 (2003)                  
          RI-JK Method:                                     
              A fully direct RI-HF algorithm: Implementation,
              optimised auxiliary basis sets, demonstration of
              accuracy and efficiency                         
              F. Weigend                                      
              Phys. Chem. Chem. Phys. 4: 4285 (2002)           
          Two-component HF and DFT with spin-orbit coupling:  
              Self-consistent treatment of spin-orbit         
              interactions with efficient Hartree-Fock and    
              density functional methods                      
              M. K. Armbruster, F. Weigend, C. van Wüllen and 
              W. Klopper                                      
              Phys. Chem. Chem. Phys. 10: 1748 (2008)         
          Relativistic all-electron 2c calculations           
              An efficient implementation of two-component    
              relativistic exact-decoupling methods for large 
              molecules                                       
              D. Peng, N. Middendorf, F. Weigend, M. Reiher   
              J. Chem. Phys. 138, 184105 (2013)               
                                         




              +--------------------------------------------------+
              |      general information about current run       |
              +--------------------------------------------------+

 

 DENSITY CONVERGENCE CHECK SWITCHED ON !
 SCF CONVERGENCE IF RMS(delta[D]) <     0.1000000000E-06

 PBE0 hybrid functional
 exchange:    3/4 (LDA+PBE) + 1/4 HF
 correlation: LDA (PW) + PBE
 A Hybrid-DFT calculation using the RI-J approximation will be carried out.
 Allocatable memory for RI due to $ricore (MB):                  5000


              +--------------------------------------------------+
              | Atomic coordinate, charge and isotop information |
              +--------------------------------------------------+

                    atomic coordinates            atom    charge  isotop
        -12.86871272    6.54900276    0.00652914    o      8.000     0
        -10.82297687    5.43394448    0.00289376    c      6.000     0
         -8.37339773    6.69472945    0.00865491    c      6.000     0
         -6.14212000    5.36176898    0.00494541    c      6.000     0
         -6.10465984    2.63854137   -0.00517653    c      6.000     0
         -8.45547573    1.32930428   -0.01158976    c      6.000     0
        -10.66360993    2.65843903   -0.00775436    c      6.000     0
         -3.04883871    6.46477488    0.01109665    s     16.000     0
         -1.99990584    3.28770023   -0.00024157    c      6.000     0
         -3.81330676    1.58056013   -0.00751086    n      7.000     0
          0.60946903    2.68632560   -0.00121938    c      6.000     0
          1.44125726   -0.58038206   -0.01278789    s     16.000     0
          2.43472654    4.34194238    0.00589154    n      7.000     0
          4.79551045    3.26693629    0.00377817    c      6.000     0
          4.71581387    0.34094062   -0.00691310    c      6.000     0
          5.70950423   -0.37808884    1.67777665    h      1.000     0
          5.71210951   -0.36584099   -1.69524410    h      1.000     0
          6.78956355    4.38666885    0.00935901    o      8.000     0
         -8.35015946   10.25892960    0.02149164    br    35.000     0
         -8.42605142   -0.73858123   -0.01947541    h      1.000     0
        -12.49414422    1.69446851   -0.01267993    h      1.000     0
 
       center of nuclear mass  :   -4.12780271    5.09258871    0.00515867
       center of nuclear charge:   -3.97768221    4.87304007    0.00444447

              +--------------------------------------------------+
              |               basis set information              |
              +--------------------------------------------------+

              we will work with the 1s 3p 5d 7f 9g ... basis set
              ...i.e. with spherical basis functions...

   type   atoms  prim   cont   basis
   ---------------------------------------------------------------------------
    o        2     24     14   def2-SV(P)   [3s2p1d|7s4p1d]
    c       10     24     14   def2-SV(P)   [3s2p1d|7s4p1d]
    s        2     36     18   def2-SV(P)   [4s3p1d|10s7p1d]
    n        2     24     14   def2-SV(P)   [3s2p1d|7s4p1d]
    h        4      4      2   def2-SV(P)   [2s|4s]
    br       1     74     32   def2-SV(P)   [5s4p3d|14s10p6d]
   ---------------------------------------------------------------------------
   total:   21    498    272
   ---------------------------------------------------------------------------

   total number of primitive shells          :   88
   total number of contracted shells         :  120
   total number of cartesian basis functions :  291
   total number of SCF-basis functions       :  272


 integral neglect threshold       :  0.11E-10
 integral storage threshold THIZE :  0.10E-04
 integral storage threshold THIME :         5

 RI-J AUXILIARY BASIS SET information:

              we will work with the 1s 3p 5d 7f 9g ... basis set
              ...i.e. with spherical basis functions...

   type   atoms  prim   cont   basis
   ---------------------------------------------------------------------------
    o        2     70     49   def2-SV(P)   [6s4p3d1f1g|12s5p4d2f1g]
    c       10     70     49   def2-SV(P)   [6s4p3d1f1g|12s5p4d2f1g]
    s        2     77     51   def2-SV(P)   [8s4p3d1f1g|14s5p5d2f1g]
    n        2     70     49   def2-SV(P)   [6s4p3d1f1g|12s5p4d2f1g]
    h        4     16     11   def2-SV(P)   [3s1p1d|5s2p1d]
    br       1     89     58   def2-SV(P)   [8s4p3d2f1g|19s5p5d3f1g]
   ---------------------------------------------------------------------------
   total:   21   1287    890
   ---------------------------------------------------------------------------

   total number of primitive shells          :  140
   total number of contracted shells         :  282
   total number of cartesian basis functions : 1101
   total number of SCF-basis functions       :  890


 symmetry group of the molecule :   c1 

 the group has the following generators :
   c1(z)

    1 symmetry operations found

 there are 1 real representations :   a   

 maximum number of shells which are related by symmetry :  1


    mo occupation :
   irrep   mo's   occupied
    a      272       81
 
 number of basis functions   :                    272
 number of occupied orbitals :                     81
 
  
           ------------------
           density functional
           ------------------
 PBE0 hybrid functional
 exchange:    3/4 (LDA+PBE) + 1/4 HF
 correlation: LDA (PW) + PBE

 iterations will be done with small grid
  
 spherical integration : Lebedev's spherical grid
 spherical gridsize    :                     5
    i.e. gridpoints    :                   590
 value for diffuse not defined
 radial integration    : Chebyshev 2nd kind (scaling 3)
 radial gridsize       :                     8
 integration cells     :                    21
 partition function    : becke
 partition sharpness   :                     3
  

 biggest AO integral is expected to be    21.668154127
  
           ------------------------
               RI-J - INFORMATION
           ------------------------
 Contributions to RI integral batches: 
  neglected integral batches:                  2250
  direct contribution:                            0
  memory contribution:                  5010
 Memory core needed for (P|Q) and Cholesky      7 MByte
 Memory core minimum needed except of (P|Q)     1 MByte
 Total minimum memory core needed (sum)         7 MByte
  
 ****************************************
 Memory allocated for RI-J   250 MByte
 ****************************************
                                            

          ------------------------
          nuclear repulsion energy  :   1708.82855687    
          ------------------------


         -----------------
         -S,T+V- integrals
         -----------------

 1e-integrals will be neglected if expon. factor < 0.114844E-11
 Difference densities >>NOT<< switched on in parallel ridft!

 DIIS switched on: error vector is FDS-SDF
 Max. Iterations for DIIS is     :   4
 DIIS matrix (see manual) 
    Scaling factor of diagonals  :  1.200
    threshold for scaling factor :  0.000

 scf convergence criterion : increment of total energy < .1000000D-06
                  and increment of one-electron energy < .1000000D-03

  MOs are in ASCII format !


 automatic virtual orbital shift switched on 
      shift if e(lumo)-e(homo) < 0.10000000    


 reading orbital data $scfmo  from file mos
 orbital characterization : scfconv=7

 DSCF restart information will be dumped onto file mos


 Starting SCF iterations

          Overall gridpoints after grid construction =        122153

 ITERATION  ENERGY          1e-ENERGY        2e-ENERGY     RMS[dD(SAO)]   TOL
   1  -4011.7324620490    -8978.4581843     3257.8971654    0.000D+00 0.115D-10
                            Exc = -172.747734638     Coul =  3486.31267215    
                            exK = -55.6677721345    
                              N = 162.00004145    
                            current damping = 0.700
 
          max. resid. norm for Fia-block=  5.477D-04 for orbital      1a         
          max. resid. fock norm         =  1.038D-03 for orbital    197a         

 ITERATION  ENERGY          1e-ENERGY        2e-ENERGY     RMS[dD(SAO)]   TOL
   2  -4011.7324636220    -8978.4574151     3257.8963946    0.102D-04 0.115D-10
                            Exc = -172.747720298     Coul =  3486.31188273    
                            exK = -55.6677678647    
                              N = 162.00004144    
                            current damping = 0.650
 
          Norm of current diis error: 0.12914E-02
          max. resid. norm for Fia-block=  2.256D-04 for orbital      1a         
          max. resid. fock norm         =  4.296D-04 for orbital    197a         

 ITERATION  ENERGY          1e-ENERGY        2e-ENERGY     RMS[dD(SAO)]   TOL
   3  -4011.7324640054    -8978.4578792     3257.8968583    0.480D-05 0.115D-10
                            Exc = -172.747714317     Coul =  3486.31233687    
                            exK = -55.6677642593    
                              N = 162.00004144    
                            current damping = 0.600
 
          Norm of current diis error: 0.55868E-03
          max. resid. norm for Fia-block=  8.887D-05 for orbital      1a         
          max. resid. fock norm         =  1.708D-04 for orbital    197a         

 ITERATION  ENERGY          1e-ENERGY        2e-ENERGY     RMS[dD(SAO)]   TOL
   4  -4011.7324640793    -8978.4572052     3257.8961842    0.235D-05 0.115D-10
                            Exc = -172.747726884     Coul =  3486.31168125    
                            exK = -55.6677701525    
                              N = 162.00004144    
                            current damping = 0.650
 
          Norm of current diis error: 0.26251E-03
          max. resid. norm for Fia-block=  3.333D-05 for orbital      1a         
          max. resid. fock norm         =  6.594D-05 for orbital    197a         

 ITERATION  ENERGY          1e-ENERGY        2e-ENERGY     RMS[dD(SAO)]   TOL
   5  -4011.7324640932    -8978.4576710     3257.8966500    0.117D-05 0.115D-10
                            Exc = -172.747709497     Coul =  3486.31212217    
                            exK = -55.6677626380    
                              N = 162.00004144    
                            current damping = 0.700
 
          Norm of current diis error: 0.12620E-03
          max. resid. norm for Fia-block=  1.313D-05 for orbital      1a         
          max. resid. fock norm         =  2.644D-05 for orbital    197a         
          mo-orthogonalization: Cholesky decomposition

 ITERATION  ENERGY          1e-ENERGY        2e-ENERGY     RMS[dD(SAO)]   TOL
   6  -4011.7324643304    -8978.4575058     3257.8964846    0.586D-06 0.115D-10
                            Exc = -172.747717760     Coul =  3486.31196851    
                            exK = -55.6677661291    
                              N = 162.00004146    
                            current damping = 0.750
 
          Norm of current diis error: 0.56481E-04
          max. resid. norm for Fia-block=  5.616D-06 for orbital     68a         
          max. resid. fock norm         =  1.104D-05 for orbital    197a         

 ENERGY & DENSITY CONVERGED !

          Overall gridpoints after grid construction =        372241

 ITERATION  ENERGY          1e-ENERGY        2e-ENERGY     RMS[dD(SAO)]   TOL
   7  -4011.7324576004    -8978.4575097     3257.8964952    0.259D-06 0.115D-10
                            Exc = -172.747710129     Coul =  3486.31197099    
                            exK = -55.6677656736    
                              N = 162.00000330    
                            current damping = 0.800
 
          Norm of current diis error: 0.20405E-04
          max. resid. norm for Fia-block=  2.340D-06 for orbital     68a         
          max. resid. fock norm         =  4.540D-06 for orbital    197a         

 End of SCF iterations

   convergence criteria satisfied after    7 iterations


                  ------------------------------------------ 
                 |  total energy      =  -4011.73245760041  |
                  ------------------------------------------ 
                 :  kinetic energy    =   4002.42299538646  :
                 :  potential energy  =  -8014.15545298687  :
                 :  virial theorem    =      1.99767944091  :
                 :  wavefunction norm =      1.00000000000  :
                  .......................................... 


 orbitals $scfmo  will be written to file mos

    irrep                 77a         78a         79a         80a         81a   
 eigenvalues H         -0.16698    -0.15677    -0.13534    -0.12600    -0.07710
            eV          -4.5437     -4.2659     -3.6829     -3.4286     -2.0980
 occupation              2.0000      2.0000      2.0000      2.0000      2.0000 

    irrep                 82a         83a         84a         85a         86a   
 eigenvalues H          0.02346     0.11079     0.11990     0.12681     0.13506
            eV           0.6385      3.0149      3.2627      3.4506      3.6753
 
 
 
 
 ==============================================================================
                           electrostatic moments
 ==============================================================================

 reference point for electrostatic moments:    0.00000   0.00000   0.00000

 
              nuc           elec       ->  total
 ------------------------------------------------------------------------------
                          charge      
 ------------------------------------------------------------------------------
         161.000000    -162.000000      -1.000000
 
 ------------------------------------------------------------------------------
                       dipole moment  
 ------------------------------------------------------------------------------
   x    -640.406837     645.064873       4.658036
   y     784.559451    -790.552351      -5.992900
   z       0.715560      -0.724117      -0.008557
 
   | dipole moment | =     7.5903 a.u. =    19.2925 debye 
 
 ------------------------------------------------------------------------------
                     quadrupole moment
 ------------------------------------------------------------------------------
  xx    7733.917522   -7907.333591    -173.416069
  yy    5894.124567   -6028.503137    -134.378571
  zz       5.714115     -98.486505     -92.772390
  xy   -4897.275349    4929.862196      32.586847
  xz      -6.381525       6.407718       0.026194
  yz      10.067128     -10.136872      -0.069744
 
     1/3  trace=    -133.522343
     anisotropy=      89.804934
 
 ==============================================================================
 


    ------------------------------------------------------------------------
         total  cpu-time :  2 minutes and 31 seconds
         total wall-time :  19.42 seconds
    ------------------------------------------------------------------------

   ****  ridft : all done  ****


    2018-02-06 15:40:49.119 

fine, there is no data group "$actual step"
next step = rdgrad
 energy change  : actual value =  -0.1900E-06 threshold =   0.1000E-05
 geom. gradient : actual value =   0.9822E-04 threshold =   0.1000E-02

CONVERGENCY CRITERIA FULFILLED IN CYCLE 6

