21
 Energy =   -4011.7322146610
 O   -6.8117381    3.4595796    0.0029335  0.00    0.1499940   -0.0755406   -0.0002042
 C   -5.7216478    2.8707448    0.0013385  0.00   -0.2680717    0.1316243    0.0003172
 C   -4.4348731    3.5452103    0.0045764  0.00    0.0896003    0.0050511    0.0001340
 C   -3.2531015    2.8403188    0.0026474  0.00    0.0016796    0.0257797    0.0000788
 C   -3.2340551    1.4008789   -0.0027133  0.00    0.0625676   -0.0117122    0.0000117
 C   -4.4737326    0.7034700   -0.0060358  0.00   -0.0156957    0.0270973    0.0000975
 C   -5.6422345    1.4048733   -0.0040951  0.00    0.0565883   -0.0041497    0.0000085
 S   -1.6157756    3.4241695    0.0058077  0.00    0.0056297    0.0184775    0.0000586
 C   -1.0583751    1.7446135   -0.0001276  0.00   -0.0629114   -0.0357465   -0.0001861
 N   -2.0207710    0.8437951   -0.0040662  0.00    0.0086542   -0.0398497   -0.0001472
 C    0.3182677    1.4165633   -0.0005116  0.00    0.1182711    0.0658194    0.0003628
 S    0.7643403   -0.3082045   -0.0066373  0.00   -0.0126557   -0.0404002   -0.0001905
 N    1.2897944    2.2900858    0.0033428  0.00   -0.0821598    0.0125643   -0.0000060
 C    2.5355001    1.7211731    0.0020153  0.00    0.1472755    0.1337127    0.0005704
 C    2.4996733    0.1802397   -0.0037318  0.00   -0.1127287   -0.0006379   -0.0000684
 H    3.0212415   -0.1961605    0.8866843  0.00    0.0370662   -0.0331556    0.0493278
 H    3.0223923   -0.1895294   -0.8962514  0.00    0.0370753   -0.0328040   -0.0495108
 O    3.5926833    2.3185410    0.0048960  0.00   -0.1021553   -0.0672262   -0.0003005
Br   -4.4145662    5.4330358    0.0116693  0.00   -0.0212909   -0.0289804   -0.0001282
 H   -4.4573940   -0.3881333   -0.0100862  0.00    0.0087080   -0.0444292   -0.0001773
 H   -6.6069278    0.8930852   -0.0065650  0.00   -0.0450766   -0.0057187   -0.0000374
21
 Energy =   -4011.7324223920
 O   -6.8086108    3.4645045    0.0028764  0.00    0.0570852   -0.0274128   -0.0000477
 C   -5.7233131    2.8744770    0.0013277  0.00   -0.1107776    0.0413960    0.0000941
 C   -4.4308183    3.5428336    0.0045915  0.00    0.0433090    0.0031891    0.0001083
 C   -3.2495092    2.8369954    0.0026702  0.00   -0.0157306    0.0190559   -0.0000333
 C   -3.2304102    1.3963615   -0.0026932  0.00    0.0160905    0.0004410   -0.0000444
 C   -4.4737847    0.7029213   -0.0060389  0.00   -0.0121893    0.0109371    0.0000443
 C   -5.6421013    1.4071109   -0.0040939  0.00    0.0304925   -0.0199297   -0.0000188
 S   -1.6133886    3.4219631    0.0057675  0.00    0.0048655    0.0018093    0.0000815
 C   -1.0574175    1.7416135   -0.0001301  0.00   -0.0303374   -0.0292680   -0.0001112
 N   -2.0173847    0.8379749   -0.0040538  0.00    0.0014015   -0.0057540   -0.0000411
 C    0.3211344    1.4183704   -0.0004822  0.00    0.0365047    0.0480843    0.0001985
 S    0.7620866   -0.3080659   -0.0065917  0.00    0.0042410   -0.0105475   -0.0000636
 N    1.2877356    2.2955797    0.0033583  0.00   -0.0336932   -0.0076131   -0.0000610
 C    2.5353647    1.7274111    0.0020216  0.00    0.0681150    0.0441282    0.0002212
 C    2.4959384    0.1812492   -0.0037304  0.00   -0.0342291   -0.0094077   -0.0000343
 H    3.0193492   -0.1983354    0.8885484  0.00    0.0125617   -0.0075967    0.0054581
 H    3.0204481   -0.1917104   -0.8981554  0.00    0.0125406   -0.0075763   -0.0055051
 O    3.5912900    2.3220828    0.0048756  0.00   -0.0406634   -0.0286943   -0.0001299
Br   -4.4187085    5.4294933    0.0117041  0.00   -0.0011738   -0.0095812   -0.0000664
 H   -4.4594525   -0.3909031   -0.0101496  0.00    0.0037749   -0.0078697    0.0000256
 H   -6.6097471    0.8964227   -0.0065321  0.00   -0.0118404    0.0019954   -0.0000645
21
 Energy =   -4011.7324541950
 O   -6.8097336    3.4652950    0.0033577  0.00    0.0050179    0.0004894   -0.0001177
 C   -5.7266438    2.8757130    0.0014911  0.00   -0.0119962   -0.0029854   -0.0002439
 C   -4.4308878    3.5425655    0.0044375  0.00    0.0085667    0.0022394   -0.0001328
 C   -3.2496919    2.8373771    0.0023854  0.00   -0.0090078    0.0009465    0.0006698
 C   -3.2299928    1.3963716   -0.0029441  0.00    0.0002383   -0.0030404    0.0003103
 C   -4.4740135    0.7034610   -0.0059853  0.00   -0.0059952    0.0023989   -0.0001538
 C   -5.6426306    1.4072023   -0.0040022  0.00    0.0063306   -0.0101879   -0.0002908
 S   -1.6132768    3.4212984    0.0059412  0.00    0.0043146    0.0024184   -0.0004838
 C   -1.0578354    1.7404795   -0.0001919  0.00   -0.0048896   -0.0171003   -0.0002370
 N   -2.0174042    0.8365794   -0.0043165  0.00    0.0011381    0.0063411    0.0003632
 C    0.3225257    1.4202787   -0.0005187  0.00    0.0026880    0.0275833    0.0000846
 S    0.7622840   -0.3072683   -0.0068883  0.00    0.0054837   -0.0037941    0.0000068
 N    1.2881013    2.2976040    0.0035153  0.00   -0.0065230   -0.0096797    0.0000047
 C    2.5371706    1.7291244    0.0022072  0.00    0.0087256   -0.0008610   -0.0000037
 C    2.4957157    0.1807413   -0.0037823  0.00   -0.0082591   -0.0065174   -0.0000380
 H    3.0203255   -0.2004323    0.8885333  0.00    0.0018921    0.0019343   -0.0060880
 H    3.0215987   -0.1935523   -0.8982584  0.00    0.0018702    0.0018804    0.0061070
 O    3.5925298    2.3216874    0.0052326  0.00   -0.0025478   -0.0004302   -0.0000087
Br   -4.4193165    5.4285832    0.0112621  0.00    0.0010504    0.0011648    0.0001594
 H   -4.4590672   -0.3910468   -0.0097566  0.00    0.0015148    0.0034087   -0.0003734
 H   -6.6110569    0.8962878   -0.0066291  0.00    0.0007211    0.0035812    0.0004765
21
 Energy =   -4011.7324557850
 O   -6.8097813    3.4656598    0.0005798  0.00   -0.0021732    0.0029474    0.0004712
 C   -5.7271572    2.8758275    0.0004867  0.00    0.0025019   -0.0060054    0.0009975
 C   -4.4308327    3.5425145    0.0052715  0.00    0.0010926    0.0010258    0.0009734
 C   -3.2499435    2.8371463    0.0041453  0.00   -0.0045675   -0.0006722   -0.0033590
 C   -3.2302107    1.3960878   -0.0013399  0.00   -0.0004891   -0.0011979   -0.0013061
 C   -4.4743798    0.7034427   -0.0061012  0.00   -0.0022095    0.0005431    0.0009483
 C   -5.6428948    1.4070966   -0.0046701  0.00    0.0015216   -0.0043278    0.0010573
 S   -1.6133926    3.4210046    0.0055452  0.00    0.0027373    0.0021019    0.0020946
 C   -1.0580887    1.7400727    0.0004214  0.00   -0.0006159   -0.0113587    0.0008840
 N   -2.0176033    0.8362665   -0.0026022  0.00    0.0003633    0.0046428   -0.0018709
 C    0.3226160    1.4208447   -0.0002640  0.00   -0.0010200    0.0170942    0.0004170
 S    0.7625622   -0.3070848   -0.0055407  0.00    0.0037849   -0.0030470   -0.0000578
 N    1.2881680    2.2978213    0.0026872  0.00   -0.0014208   -0.0061704   -0.0001165
 C    2.5374995    1.7292785    0.0011612  0.00    0.0003191   -0.0049293   -0.0001004
 C    2.4957682    0.1806993   -0.0036686  0.00   -0.0057839   -0.0034799   -0.0000133
 H    3.0213149   -0.1997797    0.8883126  0.00    0.0011003    0.0018698   -0.0039519
 H    3.0216834   -0.1942176   -0.8977851  0.00    0.0011152    0.0018548    0.0039609
 O    3.5927294    2.3216873    0.0032094  0.00    0.0017233    0.0027201    0.0000672
Br   -4.4185716    5.4284991    0.0133567  0.00    0.0004894    0.0015344   -0.0006999
 H   -4.4593109   -0.3909994   -0.0113450  0.00    0.0008928    0.0022032    0.0015005
 H   -6.6114740    0.8964824   -0.0067703  0.00    0.0009714    0.0024419   -0.0018902
21
 Energy =   -4011.7324571590
 O   -6.8097456    3.4658928    0.0035539  0.00   -0.0043005    0.0025687    0.0001039
 C   -5.7273640    2.8757870    0.0016837  0.00    0.0076151   -0.0044550    0.0000263
 C   -4.4307975    3.5425185    0.0045612  0.00   -0.0030671   -0.0001866   -0.0002133
 C   -3.2501886    2.8369438    0.0022050  0.00   -0.0005212   -0.0006887    0.0002196
 C   -3.2304630    1.3958658   -0.0032487  0.00    0.0001895    0.0008344    0.0000089
 C   -4.4746952    0.7033828   -0.0063126  0.00    0.0009763   -0.0004770   -0.0003456
 C   -5.6430931    1.4069518   -0.0037904  0.00   -0.0011206    0.0008217    0.0002121
 S   -1.6135011    3.4207977    0.0051328  0.00    0.0009786    0.0016973    0.0003068
 C   -1.0583047    1.7397750   -0.0005763  0.00    0.0013948   -0.0059763   -0.0002309
 N   -2.0178119    0.8361286   -0.0046087  0.00   -0.0004624    0.0015963    0.0001427
 C    0.3225731    1.4212768   -0.0005913  0.00   -0.0015178    0.0075535   -0.0002380
 S    0.7628086   -0.3069796   -0.0065126  0.00    0.0017591   -0.0027536   -0.0000410
 N    1.2882234    2.2978286    0.0033693  0.00    0.0012760   -0.0021389   -0.0001060
 C    2.5376668    1.7292160    0.0022087  0.00   -0.0025288   -0.0044599    0.0000975
 C    2.4958044    0.1806706   -0.0034790  0.00   -0.0053754   -0.0005564    0.0000407
 H    3.0213026   -0.2000914    0.8881867  0.00    0.0012826    0.0008475   -0.0005140
 H    3.0225957   -0.1935684   -0.8971408  0.00    0.0012728    0.0008258    0.0005061
 O    3.5928248    2.3216642    0.0051513  0.00    0.0022987    0.0030496   -0.0000158
Br   -4.4178686    5.4285457    0.0117588  0.00   -0.0002592    0.0007763   -0.0000046
 H   -4.4595125   -0.3909335   -0.0108366  0.00    0.0004610   -0.0001162    0.0005497
 H   -6.6117532    0.8966773   -0.0056245  0.00   -0.0000183    0.0010291   -0.0004941
21
 Energy =   -4011.7324573490
 O   -6.8097079    3.4658532    0.0014090  0.00   -0.0018414    0.0005157    0.0000240
 C   -5.7272598    2.8756442    0.0006125  0.00    0.0035098   -0.0007933   -0.0002121
 C   -4.4308476    3.5425862    0.0046956  0.00   -0.0024540   -0.0005355    0.0005264
 C   -3.2502890    2.8369701    0.0035062  0.00    0.0011639    0.0001392   -0.0005250
 C   -3.2305621    1.3959038   -0.0016936  0.00    0.0009424    0.0013028   -0.0004353
 C   -4.4747136    0.7033535   -0.0054745  0.00    0.0015626   -0.0002760    0.0005231
 C   -5.6430867    1.4068518   -0.0046592  0.00   -0.0008792    0.0022746   -0.0002081
 S   -1.6135059    3.4208150    0.0068598  0.00   -0.0000150    0.0013657   -0.0002440
 C   -1.0583606    1.7397216    0.0006318  0.00    0.0008256   -0.0031949    0.0003170
 N   -2.0179141    0.8362187   -0.0031832  0.00   -0.0005602   -0.0004498    0.0002849
 C    0.3224795    1.4214119   -0.0001384  0.00    0.0002054    0.0034187    0.0002374
 S    0.7628439   -0.3070226   -0.0065866  0.00    0.0005748   -0.0024871   -0.0000399
 N    1.2882775    2.2976893    0.0035071  0.00    0.0007132    0.0000199   -0.0000276
 C    2.5376454    1.7289951    0.0017043  0.00   -0.0000182   -0.0011514   -0.0000031
 C    2.4957383    0.1806105   -0.0042126  0.00   -0.0056333    0.0005110    0.0000033
 H    3.0218086   -0.2000901    0.8869782  0.00    0.0017036   -0.0001945    0.0015925
 H    3.0223398   -0.1932837   -0.8979675  0.00    0.0017120   -0.0001888   -0.0015862
 O    3.5928197    2.3215774    0.0042711  0.00    0.0001019    0.0011304    0.0000533
Br   -4.4178608    5.4286748    0.0117949  0.00   -0.0005563   -0.0002713   -0.0001168
 H   -4.4594042   -0.3908814   -0.0087187  0.00    0.0003716   -0.0015542   -0.0009821
 H   -6.6117397    0.8967508   -0.0082462  0.00   -0.0010953    0.0002100    0.0008252
