           Doing BLAS/Lapack in the master proc. with  8 CPUs.
           SMPCPUS    set: Shared-memory Parallelization with   8 CPUs.

           SMP Parallelization Reference:
           C. van Wullen, J. Comput. Chem. 32 (2011) 1195--1201
 operating system is UNIX !

 force (c-3-38.gp.local) : TURBOMOLE V7.2 ( 21454 ) 4 Oct 2017 at 12:48:15
 Copyright (C) 2017 TURBOMOLE GmbH, Karlsruhe


    2018-03-23 00:03:17.917 



                             T U R B O M O L E   

                          a o f o r c e - program

                        using direct algorithms for

                       SCF level calculations of
                         * harmonic force constants
                         * hyperpolarizabilities
                         * IR and RAMAN intensities
                         * VCD intensities

                       DFT level calculations of
                         * harmonic force constants
                         * IR intensities
                                                   
       Stephan Boecker, Peter Deglmann, Filipp Furche and Marco Haeser
                          Quantum Chemistry Group
                          Universitaet  Karlsruhe
                                   Germany

 
 
 
 
     References :
 
       RI-J implementation:
         Peter Deglmann, Klaus May, Filipp Furche, Reinhart Ahlrichs
                 Chem. Phys. Lett. 384:103 (2004)
 
       Efficiency, technical details:
         Peter Deglmann, Filipp Furche, Reinhart Ahlrichs
                 Chem. Phys. Lett. 362:511 (2002)
 
       Search of lowest eigenvalues by iterative diagonalization:
         Peter Deglmann, Filipp Furche
                 J. Chem. Phys. 117:9535 (2002)
 
       Vibrational circular dichroism implementation:
        Kevin Reiter, Michael Kuehn, Florian Weigend
                 J. Chem. Phys. 146:054102 (2017)  
 
 


              +--------------------------------------------------+
              | Atomic coordinate, charge and isotop information |
              +--------------------------------------------------+

                    atomic coordinates            atom    charge  isotop
         -0.77897597   -2.53713861    0.00000000    c      6.000     0
         -2.59762868   -0.59737791    0.00000000    c      6.000     0
          1.81615879   -1.95092347    0.00000000    c      6.000     0
          2.58671448    0.59395633    0.00000000    c      6.000     0
          0.78146989    2.54830138    0.00000000    c      6.000     0
         -1.80773851    1.94318229    0.00000000    c      6.000     0
          3.77723676   -3.86201783    0.00000000    c      6.000     0
          3.61703854   -6.35435305    0.00000000    c      6.000     0
         -0.43799859   -7.24227539    0.00000000    n      7.000     0
         -1.40273303   -5.19568706    0.00000000    c      6.000     0
         -6.27405127   -3.88539388    0.00000000    c      6.000     0
         -5.23322393   -1.34017408    0.00000000    c      6.000     0
         -7.31155044    0.04472926    0.00000000    c      6.000     0
         -6.05299517    4.00045560    0.00000000    n      7.000     0
         -3.79823047    3.81264597    0.00000000    c      6.000     0
         -0.22782417    7.37618473    0.00000000    c      6.000     0
          1.45598717    5.20219190    0.00000000    c      6.000     0
          6.50187544   -3.49079085    0.00000000    c      6.000     0
          5.20096350    1.38304109    0.00000000    c      6.000     0
          6.49099377    3.24181979    0.00000000    n      7.000     0
          3.69451190    6.30962379    0.00000000    c      6.000     0
          4.74295918    8.07374066    0.00000000    h      1.000     0
          7.56962643   -3.62095452    1.77469421    h      1.000     0
          7.56962643   -3.62095452   -1.77469421    h      1.000     0
          4.62058493   -8.14439347    0.00000000    h      1.000     0
         -9.36354411    0.07065281    0.00000000    h      1.000     0
         -6.92065181   -4.74501152   -1.77469421    h      1.000     0
         -6.92065181   -4.74501152    1.77469421    h      1.000     0
         -0.64897461    8.36596604   -1.77469421    h      1.000     0
         -0.64897461    8.36596604    1.77469421    h      1.000     0
 
       center of nuclear mass  :   -0.00000000    0.00000000    0.00000000
       center of nuclear charge:   -0.00000000    0.00000000    0.00000000

              +--------------------------------------------------+
              |               basis set information              |
              +--------------------------------------------------+

              we will work with the 1s 3p 5d 7f 9g ... basis set
              ...i.e. with spherical basis functions...

   type   atoms  prim   cont   basis
   ---------------------------------------------------------------------------
    c       18     24     14   def2-SV(P)   [3s2p1d|7s4p1d]
    n        3     24     14   def2-SV(P)   [3s2p1d|7s4p1d]
    h        9      4      2   def2-SV(P)   [2s|4s]
   ---------------------------------------------------------------------------
   total:   30    540    312
   ---------------------------------------------------------------------------

   total number of primitive shells          :   28
   total number of contracted shells         :  144
   total number of cartesian basis functions :  333
   total number of SCF-basis functions       :  312

 
             FOUND RI-J FLAG !
 

 NOTE: THIS IS A PRELIMINARY IMPLEMENTATION. THE RI APPROXIMATION IS
       PRESENTLY USED FOR CPKS CONTRIBUTIONS TO THE HESSIAN ONLY! SEE
       MANUAL FOR FURTHER DETAILS.

  
 AUXILIARY BASIS SET information:

              we will work with the 1s 3p 5d 7f 9g ... basis set
              ...i.e. with spherical basis functions...

   type   atoms  prim   cont   basis
   ---------------------------------------------------------------------------
    c       18     70     49   def2-SV(P)   [6s4p3d1f1g|12s5p4d2f1g]
    n        3     70     49   def2-SV(P)   [6s4p3d1f1g|12s5p4d2f1g]
    h        9     16     11   def2-SV(P)   [3s1p1d|5s2p1d]
   ---------------------------------------------------------------------------
   total:   30   1614   1128
   ---------------------------------------------------------------------------

   total number of primitive shells          :   56
   total number of contracted shells         :  360
   total number of cartesian basis functions : 1389
   total number of SCF-basis functions       : 1128


 symmetry group of the molecule :   c3h

 the group has the following generators :
   c3(z)
   mirror plane sigma(xy)

    6 symmetry operations found

 there are 4 real representations :   a'   e'   a"   e"  

 maximum number of shells which are related by symmetry :  6


 determining totally symmetric integral contributions 
    - equivalent to irreducible tensor elements - 
 which can be formed within each triple of representations :

             representation triple      contributions

              a'    a'    a'              1
              a'    e'    e'              2
              a'    a"    a"              1
              a'    e"    e"              2
              e'    a'    e'              2
              e'    e'    a'              2
              e'    e'    e'              2
              e'    a"    e"              2
              e'    e"    a"              2
              e'    e"    e"              2
              a"    a'    a"              1
              a"    e'    e"              2
              a"    a"    a'              1
              a"    e"    e'              2
              e"    a'    e"              2
              e"    e'    a"              2
              e"    e'    e"              2
              e"    a"    e'              2
              e"    e"    a'              2
              e"    e"    e'              2


 WARNING WARNING WARNING WARNING WARNING WARNING WARNING WARNING WARNING
 !!!!!!!!!!!!!!!!!!!!!!!!!!!!!!!!!!!!!!!!!!!!!!!!!!!!!!!!!!!!!!!!!!!!!!!

 Point groups with complex reducible e representations are currently 
 NOT supported by aoforce.
 It is STRONGLY RECOMMENDED to use a lower symmetry!

 WARNING WARNING WARNING WARNING WARNING WARNING WARNING WARNING WARNING
 !!!!!!!!!!!!!!!!!!!!!!!!!!!!!!!!!!!!!!!!!!!!!!!!!!!!!!!!!!!!!!!!!!!!!!!



    mo occupation :
   irrep   mo's   occupied
    a'      74       19
    e'     148       38
    a"      30        4
    e"      60        8
 
 number of basis functions   :                    312
 number of occupied orbitals :                     69
 
  MOs are in ASCII format !


 reading orbital data $scfmo  from file mos
 orbital characterization : scfconv=7
 time elapsed for calculating density matrices :   0.040 sec

 number of non-frozen orbitals          :   312
 number of non-frozen occupied orbitals :    69
 Blocking parameters 
 shells:
    index      start shell   last shell  start bf    last bf    #bf 
       1             1         144             1        333    333
  
           ----------------------
               RI - INFORMATION
           ----------------------

 biggest AO integral is expected to be     4.152585025

 Threshold for integral neglect (rithr2):   0.13E-11
 Threshold for integral neglect (rithr1):   0.13E-11

 Contributions to RI integral batches: 
  neglected integral batches:                  7792
  direct contribution:                            0
  memory contribution:                  2648
 Core memory available (ricore):               500 MiB
 Core memory needed for (P|Q) and Cholesky:      3 MiB
 Core memory used for integrals:               155 MiB
 
 ****************************************
 Memory allocated for RIDFT: 158 MiB
 ****************************************
 
  
           ------------------
           density functional
           ------------------
 TPSS meta-GGA functional
 exchange:    LDA + TPSS
 correlation: LDA (PW) + TPSS

 iterations will be done with small grid
  
 spherical integration : Lebedev's spherical grid
 spherical gridsize    :                     3
    i.e. gridpoints    :                   302
 value for diffuse not defined
 radial integration    : Chebyshev 2nd kind (scaling 3)
 radial gridsize       :                     3
 integration cells     :                     9
 partition function    : becke
 partition sharpness   :                     3
  
 
 Derivatives of quadrature weights will be included
 
 grid rotated due to c3 or c6 main axis
          Overall gridpoints after grid construction =         48942
 Ordering of quadrature gridpoints disabled.
 
 
 
 
 OCCUPIED-OCCUPIED TENSOR SPACES :

          IRREP   tensor space dimension   number of roots

           a'             1885                  18
           e'             3016                  36
           a"              760                  10
           e"             1216                  20
 
 OCCUPIED-VIRTUAL TENSOR SPACES :

          IRREP   tensor space dimension   number of roots

           a'             3447                  18
           e'             6894                  36
           a"             2142                  10
           e"             4284                  20
 
 
 
 
 CONSTRUCTING integral bounds

 setting up bound for integral derivative estimation

 increment for numerical differentiation : 0.00050000
 
 machine precision:   2.220446049250313E-016

 integral neglect threshold       :  0.10E-09
 integral storage threshold THIZE :  0.10E-04
 integral storage threshold THIME :         5

 
 
 
 PREPARING NUMERICAL INTEGRATION
 
 Remaining core memory for DFT =                  3586 MB
 
 Memory needed per atom    =                  1303 KiB
 
     i. e.                    30 atoms per loop

 Calculating ground state density on molecular grid

 Integral of ground state density: N =   138.0000979949210    


 
 
 CONSTRUCTING first deriv. of <mu|x,y,z|nu> -> Dip. deriv.
  dipole integral derivatives will be neglected if
  expon. factor <0.150150E-11
      ...terminated. cpu:       0.25       wall:       0.03
 
 
 
 
 CONSTRUCTING first deriv. of  <mu|nu>
                               <mu|h|nu>    -> RHS
              second deriv. of <mu|nu>      -> Hessian
                               <mu|h|nu>    -> Hessian
                               nucl. rep.   -> Hessian
     integrals are neglected if expon. factor <  1.501501501501502E-013
      ...terminated. cpu:       6.61       wall:       1.70
 
 
 
 
 CONSTRUCTING second deriv. of 2e energy    -> Hessian
   treating Coulomb (and exchange) contribution
     integrals will be neglected if total contribution <  1.501501501501501E-009
      ...terminated. cpu:     123.08       wall:      15.29
   treating exchange-correlation contribution
      ...terminated. cpu:     112.91       wall:      14.08
 
 
 
 
 CONSTRUCTING S(i,j)xi
      ...terminated. cpu:       0.19       wall:       0.07
 
 
 
 
 CONSTRUCTING <i|x,y,z|j>*S(i,j)xi          -> Dip. deriv.
      ...terminated. cpu:       0.19       wall:       0.03
 
 
 
 
 CONSTRUCTING epsilon(i)*S(i,j)xi*S(i,j)chi -> Hessian
      ...terminated. cpu:       0.05       wall:       0.01
 
 
 
 
 CONSTRUCTING G(a,i)[S(k,l)xi]              -> RHS
              G(i,j)[S(k,l)xi]*S(i,j)chi    -> Hessian
 
         Maximum core memory set to                   3815 MB
         This corresponds to                  4495 vectors in CAO basis
      ...terminated. cpu:     685.77       wall:      86.06
 
 
 
 
 CONSTRUCTING G(mu,nu)[D(kap,lam)]xi
 
          Maximum core memory set to                   3815 MB
          Atoms treated simultaneously :                    30
      ...terminated. cpu:     269.71       wall:      34.13
 
 
 
 
 CONSTRUCTING F(a,i)xi                      -> RHS
              F(i,j)xi*S(i,j)chi            -> Hessian
 
        Maximum core memory set to                  3815 MB
        This corresponds to                  7999 vectors in CAO basis
      ...terminated. cpu:      12.36       wall:       2.34
 
 
 
 
 CONSTRUCTING epsilon(i)*S(a,i)xi           -> RHS
      ...terminated. cpu:       1.20       wall:       0.29
 
 
 
 
 SOLVING CPHF equations
 
 Residuum convergence criterium   :  1.000000000000000E-005
 
 Maximum number of Davidson iterations set to                    25
  Switching to small grid
        preparing numerical integration ....
          Overall gridpoints after grid construction =         13450

 Calculating ground state density on molecular grid

 Integral of ground state density: N =   137.9926678878645    




                       Nonorthonormal Krylov Space Iteration


 total number of roots to be determined:  84


 maximum core memory set to  3815 MB,
 corresponding to     4405 vectors in CAO basis


 maximum number of simultaneously treated vectors (including degeneracy):      140


 Iteration IRREP Converged      Max. Euclidean
                 roots          residual norm

    1       a'       0        8.327782598990602D-02
            e'       0        5.682834262239379D-02
            a"       0        2.122359521201270D-02
            e"       0        1.828739224497321D-02
 
    2       a'       0        1.043830544848919D-02
            e'       0        6.421499700004841D-03
            a"       0        1.760061309245444D-03
            e"       0        1.445536142659549D-03
 
    3       a'       0        5.082127355237297D-04
            e'       0        3.515308701441083D-04
            a"       2        7.148952656445554D-05
            e"       0        5.701972509531595D-05
 
    4       a'      14        1.621287131091107D-05
            e'      32        1.242879928161836D-05
            a"      10        8.635809956884131D-06
            e"      20        1.695137423915411D-06
 
    5       a'      18        8.722622513872904D-06
            e'      36        8.443991857841124D-06
            a"      10        8.635809956884131D-06
            e"      20        1.695137423915411D-06
 

 converged!

  Switching to fine grid
        preparing numerical integration ....
          Overall gridpoints after grid construction =         48942

 Calculating ground state density on molecular grid

 Integral of ground state density: N =   138.0000979949204    



 Iteration IRREP Converged      Max. Euclidean
                 roots          residual norm

    6       a'       0        2.421762080233889D-04
            e'       0        1.659669475318132D-04
            a"       0        2.209479869049876D-04
            e"       0        1.880586360670201D-04
 

 NOTE: Residual norms are larger than 1.00D-05 due to mgrid option!

      ...terminated. cpu:    1262.19       wall:     160.97
 
 
 
 
 CONSTRUCTING <a|x,y,z|i>*U(a,i)xi          -> Dip. deriv.
      ...terminated. cpu:       0.33       wall:       0.04
 
 
 
 
 CONSTRUCTING RHS(a,i)xi*U(a,i)chi          -> Hessian
      ...terminated. cpu:       1.11       wall:       0.16
 
 
 
 

            -----------------------
            permanent dipole moment
            -----------------------

                                   x                y                z
    electronic part       :    0.0000000000    -0.0000000000    -0.0000000000
     nuclear   part       :   -0.0000000000     0.0000000000     0.0000000000
     total                :    0.0000000000    -0.0000000000    -0.0000000000

 with reference to the point :   0.0000000        0.0000000        0.0000000
 (given in atomic units)
    | dipole |       :    0.0000000000  debye

   ***  dipole moment & cartesian dipole gradients written onto
        $dipole, $dipgrad,  file=<dipgrad>  ***

             -----------------------------------
             rotational and vibrational analysis
             -----------------------------------


            ==============================================================
            ATOMIC WEIGHTS (average over the natural occurance of isotops)
            ==============================================================
            ('*' denotes special isotop !)
              1     c                12.01115
              2     c                12.01115
              3     c                12.01115
              4     c                12.01115
              5     c                12.01115
              6     c                12.01115
              7     c                12.01115
              8     c                12.01115
              9     n                14.00670
             10     c                12.01115
             11     c                12.01115
             12     c                12.01115
             13     c                12.01115
             14     n                14.00670
             15     c                12.01115
             16     c                12.01115
             17     c                12.01115
             18     c                12.01115
             19     c                12.01115
             20     n                14.00670
             21     c                12.01115
             22     h                 1.00797
             23     h                 1.00797
             24     h                 1.00797
             25     h                 1.00797
             26     h                 1.00797
             27     h                 1.00797
             28     h                 1.00797
             29     h                 1.00797
             30     h                 1.00797

          -------------------------------------------------
          CARTESIAN FORCE CONSTANT MATRIX (hartree/bohr**2)
         (translational & rotational space projected out)
          -------------------------------------------------

   ATOM              1 c                           2 c 
                  dx        dy        dz        dx        dy        dz
   1 c     dx  0.6520659
           dy -0.0391250 0.6347255
           dz  0.0000000 0.0000000 0.1402879
   2 c     dx -0.2004651 0.1145070 0.0000000 0.6456081
           dy  0.0900872-0.2056448 0.0000000-0.0043417 0.6870517
           dz  0.0000000 0.0000000-0.0660468 0.0000000 0.0000000 0.1480639
   3 c     dx -0.2925742-0.0459824 0.0000000-0.0479541 0.0412186 0.0000000
           dy -0.0349044-0.1152817 0.0000000 0.0118297 0.0345003 0.0000000
           dz  0.0000000 0.0000000-0.0703759 0.0000000 0.0000000 0.0094190
   4 c     dx -0.0141155-0.0296414 0.0000000 0.0028870 0.0081014 0.0000000
           dy -0.0597953-0.0022252 0.0000000 0.0107587-0.0399382 0.0000000
           dz  0.0000000 0.0000000 0.0089615 0.0000000 0.0000000-0.0053252
   5 c     dx -0.0373986 0.0151575 0.0000000-0.0090839-0.0636603 0.0000000
           dy  0.0125002 0.0003474 0.0000000-0.0342715-0.0043699 0.0000000
           dz  0.0000000 0.0000000-0.0053252 0.0000000 0.0000000 0.0094190
   6 c     dx  0.0335295 0.0021336 0.0000000-0.1245798-0.0510092 0.0000000
           dy  0.0322874-0.0498702 0.0000000-0.0620872-0.2832761 0.0000000
           dz  0.0000000 0.0000000 0.0089615 0.0000000 0.0000000-0.0703759
   7 c     dx -0.0408588 0.0073126 0.0000000 0.0003053-0.0033064 0.0000000
           dy  0.0232334 0.0230496 0.0000000-0.0058073 0.0022021 0.0000000
           dz  0.0000000 0.0000000 0.0055474 0.0000000 0.0000000 0.0046083
   8 c     dx  0.0072970-0.0057530 0.0000000-0.0001648 0.0014196 0.0000000
           dy -0.0091050-0.0081632 0.0000000 0.0005550-0.0006144 0.0000000
           dz  0.0000000 0.0000000-0.0007271 0.0000000 0.0000000-0.0002300
   9 n     dx -0.0073349 0.0104405 0.0000000 0.0010578-0.0039574 0.0000000
           dy  0.0199011-0.0516023 0.0000000-0.0084529 0.0072291 0.0000000
           dz  0.0000000 0.0000000 0.0157971 0.0000000 0.0000000 0.0023619
  10 c     dx -0.0573458-0.0361761 0.0000000 0.0153259 0.0101494 0.0000000
           dy -0.0500816-0.2245403 0.0000000 0.0127610-0.0548218 0.0000000
           dz  0.0000000 0.0000000-0.0561828 0.0000000 0.0000000 0.0026100
  11 c     dx -0.0059285-0.0017134 0.0000000-0.0111818-0.0231740 0.0000000
           dy  0.0068135-0.0029297 0.0000000-0.0155645-0.0192149 0.0000000
           dz  0.0000000 0.0000000 0.0000895 0.0000000 0.0000000 0.0082967
  12 c     dx -0.0514701 0.0198530 0.0000000-0.2096667-0.0321999 0.0000000
           dy  0.0220761 0.0092288 0.0000000-0.0596817-0.0983938 0.0000000
           dz  0.0000000 0.0000000 0.0061481 0.0000000 0.0000000-0.0598784
  13 c     dx  0.0031140-0.0104343 0.0000000-0.0553797 0.0162869 0.0000000
           dy -0.0137477 0.0052167 0.0000000 0.0237092 0.0072601 0.0000000
           dz  0.0000000 0.0000000 0.0020518 0.0000000 0.0000000-0.0015917
  14 n     dx  0.0029460-0.0008892 0.0000000-0.0044982-0.0104579 0.0000000
           dy  0.0027183-0.0010926 0.0000000 0.0001856 0.0036622 0.0000000
           dz  0.0000000 0.0000000-0.0001848 0.0000000 0.0000000-0.0004898
  15 c     dx  0.0001373-0.0020061 0.0000000 0.0105168 0.0271657 0.0000000
           dy -0.0036782-0.0001128 0.0000000 0.0131879-0.0396199 0.0000000
           dz  0.0000000 0.0000000 0.0048211 0.0000000 0.0000000 0.0067793
  16 c     dx  0.0004935-0.0027597 0.0000000 0.0025899-0.0008145 0.0000000
           dy  0.0006612-0.0010511 0.0000000 0.0016178-0.0001244 0.0000000
           dz  0.0000000 0.0000000-0.0001711 0.0000000 0.0000000 0.0002051
  17 c     dx -0.0003783-0.0025999 0.0000000-0.0048815 0.0067691 0.0000000
           dy  0.0005453-0.0029766 0.0000000 0.0007693 0.0080335 0.0000000
           dz  0.0000000 0.0000000-0.0002250 0.0000000 0.0000000 0.0059531
  18 c     dx  0.0043434 0.0064231 0.0000000-0.0024464-0.0004049 0.0000000
           dy  0.0010550 0.0009509 0.0000000-0.0017578 0.0005161 0.0000000
           dz  0.0000000 0.0000000 0.0031036 0.0000000 0.0000000-0.0000393
  19 c     dx  0.0118021-0.0021458 0.0000000-0.0030473 0.0034657 0.0000000
           dy  0.0045616-0.0081503 0.0000000 0.0004257 0.0011571 0.0000000
           dz  0.0000000 0.0000000 0.0056728 0.0000000 0.0000000-0.0002780
  20 n     dx -0.0018586-0.0001446 0.0000000 0.0008715-0.0002901 0.0000000
           dy -0.0070451 0.0039551 0.0000000-0.0003660-0.0041049 0.0000000
           dz  0.0000000 0.0000000-0.0009879 0.0000000 0.0000000-0.0002079
  21 c     dx -0.0035139 0.0049333 0.0000000-0.0028665-0.0068303 0.0000000
           dy  0.0017094-0.0019932 0.0000000 0.0006304-0.0003103 0.0000000
           dz  0.0000000 0.0000000 0.0000791 0.0000000 0.0000000 0.0004543
  22 h     dx -0.0001137-0.0001234 0.0000000 0.0001128 0.0002905 0.0000000
           dy  0.0000804 0.0002100 0.0000000-0.0004895-0.0001117 0.0000000
           dz  0.0000000 0.0000000-0.0000652 0.0000000 0.0000000-0.0006893
  23 h     dx -0.0010177 0.0004175 0.0005063 0.0000181-0.0002226 0.0000882
           dy -0.0009607-0.0011392-0.0011308 0.0004652-0.0000433 0.0001727
           dz  0.0000099-0.0000904-0.0002907 0.0000790 0.0000252 0.0000104
  24 h     dx -0.0010177 0.0004175-0.0005063 0.0000181-0.0002226-0.0000882
           dy -0.0009607-0.0011392 0.0011308 0.0004652-0.0000433-0.0001727
           dz -0.0000099 0.0000904-0.0002907-0.0000790-0.0000252 0.0000104
  25 h     dx  0.0001123 0.0003349 0.0000000-0.0002829 0.0001331 0.0000000
           dy -0.0000500-0.0000037 0.0000000-0.0001078 0.0001656 0.0000000
           dz  0.0000000 0.0000000-0.0003152 0.0000000 0.0000000-0.0004198
  26 h     dx -0.0000709-0.0006186 0.0000000-0.0002934 0.0021629 0.0000000
           dy  0.0018119-0.0004138 0.0000000-0.0046082-0.0008761 0.0000000
           dz  0.0000000 0.0000000-0.0001554 0.0000000 0.0000000 0.0083010
  27 h     dx -0.0003197-0.0009655-0.0001320-0.0012503-0.0031609 0.0009640
           dy -0.0002570 0.0003870-0.0001781 0.0028832-0.0000954-0.0015587
           dz -0.0001323 0.0000439-0.0000931 0.0005049 0.0003890-0.0004359
  28 h     dx -0.0003197-0.0009655 0.0001320-0.0012503-0.0031609-0.0009640
           dy -0.0002570 0.0003870 0.0001781 0.0028832-0.0000954 0.0015587
           dz  0.0001323-0.0000439-0.0000931-0.0005049-0.0003890-0.0004359
  29 h     dx  0.0001303 0.0000568-0.0000435-0.0000094-0.0000183-0.0001201
           dy -0.0000371-0.0000640-0.0000503-0.0000490-0.0000396-0.0000089
           dz -0.0000017 0.0000161 0.0000043-0.0000372-0.0000536-0.0000244
  30 h     dx  0.0001303 0.0000568 0.0000435-0.0000094-0.0000183 0.0001201
           dy -0.0000371-0.0000640 0.0000503-0.0000490-0.0000396 0.0000089
           dz  0.0000017-0.0000161 0.0000043 0.0000372 0.0000536-0.0000244

   ATOM              3 c                           4 c 
                  dx        dy        dz        dx        dy        dz
   3 c     dx  0.6729307
           dy  0.0201165 0.6597290
           dz  0.0000000 0.0000000 0.1480639
   4 c     dx -0.1157580-0.0656014 0.0000000 0.6051774
           dy -0.0411816-0.2903519 0.0000000 0.0120539 0.6816140
           dz  0.0000000 0.0000000-0.0660468 0.0000000 0.0000000 0.1402879
   5 c     dx  0.0368573 0.0371362 0.0000000-0.1946299 0.0914526 0.0000000
           dy  0.0077473-0.0503111 0.0000000 0.1025306-0.2132261 0.0000000
           dz  0.0000000 0.0000000 0.0094190 0.0000000 0.0000000-0.0703759
   6 c     dx -0.0210652-0.0245875 0.0000000-0.0439250 0.0425848 0.0000000
           dy -0.0219302-0.0159860 0.0000000 0.0124309 0.0275843 0.0000000
           dz  0.0000000 0.0000000-0.0053252 0.0000000 0.0000000 0.0089615
   7 c     dx -0.1659979 0.0848939 0.0000000 0.0122099 0.0146896 0.0000000
           dy  0.0574121-0.1420626 0.0000000 0.0169126-0.0544512 0.0000000
           dz  0.0000000 0.0000000-0.0598784 0.0000000 0.0000000 0.0061481
   8 c     dx  0.0089190 0.0134137 0.0000000-0.0057801 0.0086127 0.0000000
           dy  0.0208359-0.0570386 0.0000000 0.0052993 0.0141108 0.0000000
           dz  0.0000000 0.0000000-0.0015917 0.0000000 0.0000000 0.0020518
   9 n     dx -0.0028259 0.0007799 0.0000000 0.0007090-0.0040098 0.0000000
           dy  0.0114234 0.0019899 0.0000000-0.0004022 0.0011443 0.0000000
           dz  0.0000000 0.0000000-0.0004898 0.0000000 0.0000000-0.0001848
  10 c     dx -0.0096121-0.0248094 0.0000000-0.0025116 0.0021489 0.0000000
           dy -0.0387871-0.0194910 0.0000000 0.0004767 0.0025362 0.0000000
           dz  0.0000000 0.0000000 0.0067793 0.0000000 0.0000000 0.0048211
  11 c     dx  0.0009020-0.0025923 0.0000000-0.0015736-0.0018547 0.0000000
           dy -0.0001600 0.0015635 0.0000000 0.0015662 0.0010160 0.0000000
           dz  0.0000000 0.0000000 0.0002051 0.0000000 0.0000000-0.0001711
  12 c     dx  0.0080690 0.0067077 0.0000000-0.0032166-0.0021840 0.0000000
           dy  0.0007079-0.0049169 0.0000000 0.0009612-0.0001382 0.0000000
           dz  0.0000000 0.0000000 0.0059531 0.0000000 0.0000000-0.0002250
  13 c     dx -0.0036340-0.0010735 0.0000000 0.0005030 0.0006098 0.0000000
           dy  0.0063872 0.0004572 0.0000000-0.0026142-0.0060101 0.0000000
           dz  0.0000000 0.0000000 0.0004543 0.0000000 0.0000000 0.0000791
  14 n     dx -0.0031449-0.0019529 0.0000000-0.0006116 0.0077651 0.0000000
           dy -0.0020288-0.0000886 0.0000000 0.0008646 0.0027081 0.0000000
           dz  0.0000000 0.0000000-0.0002079 0.0000000 0.0000000-0.0009879
  15 c     dx  0.0017910 0.0023677 0.0000000-0.0021162-0.0125972 0.0000000
           dy -0.0006723-0.0036813 0.0000000-0.0058899 0.0057679 0.0000000
           dz  0.0000000 0.0000000-0.0002780 0.0000000 0.0000000 0.0056728
  16 c     dx -0.0011610 0.0024999 0.0000000 0.0050372-0.0006545 0.0000000
           dy  0.0011470-0.0007693 0.0000000-0.0060226 0.0002572 0.0000000
           dz  0.0000000 0.0000000-0.0000393 0.0000000 0.0000000 0.0031036
  17 c     dx -0.0022184 0.0043501 0.0000000 0.0202994 0.0120762 0.0000000
           dy  0.0018493 0.0047259 0.0000000 0.0279971-0.0381085 0.0000000
           dz  0.0000000 0.0000000 0.0046083 0.0000000 0.0000000 0.0055474
  18 c     dx -0.0339809 0.0024015 0.0000000-0.0014710-0.0042399 0.0000000
           dy  0.0100109 0.0035842 0.0000000 0.0042870-0.0073872 0.0000000
           dz  0.0000000 0.0000000 0.0082967 0.0000000 0.0000000 0.0000895
  19 c     dx -0.0273644-0.0374082 0.0000000-0.2200924-0.0438802 0.0000000
           dy -0.0347966-0.0121315 0.0000000-0.0577857-0.0617937 0.0000000
           dz  0.0000000 0.0000000 0.0026100 0.0000000 0.0000000-0.0561828
  20 n     dx  0.0003125 0.0080226 0.0000000-0.0273972-0.0314841 0.0000000
           dy  0.0035271 0.0079745 0.0000000-0.0220234-0.0315400 0.0000000
           dz  0.0000000 0.0000000 0.0023619 0.0000000 0.0000000 0.0157971
  21 c     dx  0.0003530-0.0002561 0.0000000-0.0107318-0.0013039 0.0000000
           dy -0.0011206-0.0011323 0.0000000-0.0046560 0.0098657 0.0000000
           dz  0.0000000 0.0000000-0.0002300 0.0000000 0.0000000-0.0007271
  22 h     dx  0.0000644 0.0003083 0.0000000 0.0001487 0.0000710 0.0000000
           dy  0.0000674-0.0001817 0.0000000-0.0003139-0.0000400 0.0000000
           dz  0.0000000 0.0000000-0.0004198 0.0000000 0.0000000-0.0003152
  23 h     dx -0.0005044-0.0024525-0.0008679-0.0003191 0.0002574-0.0002203
           dy  0.0035915-0.0008413-0.0016142 0.0009659 0.0003863 0.0000253
           dz  0.0005894-0.0002428-0.0004359-0.0000282 0.0001365-0.0000931
  24 h     dx -0.0005044-0.0024525 0.0008679-0.0003191 0.0002574 0.0002203
           dy  0.0035915-0.0008413 0.0016142 0.0009659 0.0003863-0.0000253
           dz -0.0005894 0.0002428-0.0004359 0.0000282-0.0001365-0.0000931
  25 h     dx -0.0017893 0.0037446 0.0000000 0.0001886-0.0016621 0.0000000
           dy -0.0030265 0.0006198 0.0000000 0.0007684-0.0006733 0.0000000
           dz  0.0000000 0.0000000 0.0083010 0.0000000 0.0000000-0.0001554
  26 h     dx -0.0001418 0.0003425 0.0000000 0.0001105 0.0000490 0.0000000
           dy -0.0004374 0.0001429 0.0000000 0.0002528-0.0000141 0.0000000
           dz  0.0000000 0.0000000-0.0006893 0.0000000 0.0000000-0.0000652
  27 h     dx -0.0000612 0.0000191 0.0000678-0.0000069-0.0000422 0.0000653
           dy -0.0000116 0.0000122-0.0000996-0.0001360 0.0000732-0.0000125
           dz  0.0000650-0.0000054-0.0000244-0.0000131-0.0000096 0.0000043
  28 h     dx -0.0000612 0.0000191-0.0000678-0.0000069-0.0000422-0.0000653
           dy -0.0000116 0.0000122 0.0000996-0.0001360 0.0000732 0.0000125
           dz -0.0000650 0.0000054-0.0000244 0.0000131 0.0000096 0.0000043
  29 h     dx  0.0000771-0.0004312 0.0001936-0.0013441 0.0007723-0.0007261
           dy  0.0002567-0.0001022 0.0000100-0.0006059-0.0008129-0.0010039
           dz  0.0000613-0.0000558 0.0000104-0.0000734-0.0000538-0.0002907
  30 h     dx  0.0000771-0.0004312-0.0001936-0.0013441 0.0007723 0.0007261
           dy  0.0002567-0.0001022-0.0000100-0.0006059-0.0008129 0.0010039
           dz -0.0000613 0.0000558 0.0000104 0.0000734 0.0000538-0.0002907

   ATOM              5 c                           6 c 
                  dx        dy        dz        dx        dy        dz
   5 c     dx  0.6804508
           dy -0.0157748 0.6522089
           dz  0.0000000 0.0000000 0.1480639
   6 c     dx -0.2929418-0.0611156 0.0000000 0.6729439
           dy -0.0366958-0.1131681 0.0000000 0.0270711 0.6138476
           dz  0.0000000 0.0000000-0.0660468 0.0000000 0.0000000 0.1402879
   7 c     dx  0.0015406-0.0044770 0.0000000-0.0014373 0.0000661 0.0000000
           dy -0.0104769 0.0016115 0.0000000 0.0032113-0.0019175 0.0000000
           dz  0.0000000 0.0000000 0.0059531 0.0000000 0.0000000-0.0002250
   8 c     dx  0.0017353-0.0032872 0.0000000-0.0052498-0.0007071 0.0000000
           dy  0.0041735-0.0049120 0.0000000-0.0039311-0.0002573 0.0000000
           dz  0.0000000 0.0000000 0.0004543 0.0000000 0.0000000 0.0000791
   9 n     dx -0.0025768 0.0023568 0.0000000 0.0056149 0.0027303 0.0000000
           dy  0.0022809-0.0006567 0.0000000-0.0041702-0.0035184 0.0000000
           dz  0.0000000 0.0000000-0.0002079 0.0000000 0.0000000-0.0009879
  10 c     dx -0.0015791-0.0012734 0.0000000-0.0042083 0.0046820 0.0000000
           dy -0.0043134-0.0003112 0.0000000 0.0113894 0.0078600 0.0000000
           dz  0.0000000 0.0000000-0.0002780 0.0000000 0.0000000 0.0056728
  11 c     dx  0.0007119-0.0000657 0.0000000-0.0014390 0.0022835 0.0000000
           dy -0.0014186-0.0026422 0.0000000-0.0030846 0.0067334 0.0000000
           dz  0.0000000 0.0000000-0.0000393 0.0000000 0.0000000 0.0031036
  12 c     dx  0.0056742 0.0027075 0.0000000-0.0061543-0.0432701 0.0000000
           dy  0.0002067-0.0031668 0.0000000-0.0273492-0.0116548 0.0000000
           dz  0.0000000 0.0000000 0.0046083 0.0000000 0.0000000 0.0055474
  13 c     dx -0.0013571 0.0001333 0.0000000 0.0021356 0.0120850 0.0000000
           dy -0.0007313 0.0005778 0.0000000 0.0087329-0.0030017 0.0000000
           dz  0.0000000 0.0000000-0.0002300 0.0000000 0.0000000-0.0007271
  14 n     dx  0.0110601 0.0026781 0.0000000-0.0536738 0.0068526 0.0000000
           dy -0.0018174-0.0027732 0.0000000 0.0163133-0.0052635 0.0000000
           dz  0.0000000 0.0000000 0.0023619 0.0000000 0.0000000 0.0157971
  15 c     dx -0.0472054 0.0233414 0.0000000-0.1453910 0.1009146 0.0000000
           dy  0.0259530 0.0077095 0.0000000 0.0870090-0.1364951 0.0000000
           dz  0.0000000 0.0000000 0.0026100 0.0000000 0.0000000-0.0561828
  16 c     dx -0.0004323 0.0093584 0.0000000-0.0058878-0.0068370 0.0000000
           dy  0.0169678-0.0299643 0.0000000 0.0016899-0.0029704 0.0000000
           dz  0.0000000 0.0000000 0.0082967 0.0000000 0.0000000 0.0000895
  17 c     dx -0.0864261-0.0114713 0.0000000-0.0241018-0.0378772 0.0000000
           dy -0.0389531-0.2216344 0.0000000-0.0356541-0.0181396 0.0000000
           dz  0.0000000 0.0000000-0.0598784 0.0000000 0.0000000 0.0061481
  18 c     dx  0.0002063-0.0002416 0.0000000 0.0002437-0.0005170 0.0000000
           dy  0.0021906 0.0022592 0.0000000 0.0029040-0.0008013 0.0000000
           dz  0.0000000 0.0000000 0.0002051 0.0000000 0.0000000-0.0001711
  19 c     dx -0.0445593 0.0186103 0.0000000 0.0024111 0.0023654 0.0000000
           dy  0.0046326 0.0154563 0.0000000 0.0006933-0.0023866 0.0000000
           dz  0.0000000 0.0000000 0.0067793 0.0000000 0.0000000 0.0048211
  20 n     dx  0.0060701-0.0062872 0.0000000-0.0008749-0.0005123 0.0000000
           dy  0.0043562-0.0069062 0.0000000 0.0030952 0.0027283 0.0000000
           dz  0.0000000 0.0000000-0.0004898 0.0000000 0.0000000-0.0001848
  21 c     dx -0.0257187-0.0408340 0.0000000 0.0151621 0.0067917 0.0000000
           dy -0.0334118-0.0224010 0.0000000 0.0034783-0.0068315 0.0000000
           dz  0.0000000 0.0000000-0.0015917 0.0000000 0.0000000 0.0020518
  22 h     dx  0.0003285 0.0042492 0.0000000-0.0008448-0.0013651 0.0000000
           dy -0.0025219-0.0014979 0.0000000 0.0010654 0.0003601 0.0000000
           dz  0.0000000 0.0000000 0.0083010 0.0000000 0.0000000-0.0001554
  23 h     dx -0.0000029 0.0000453-0.0000523-0.0000240 0.0001261 0.0000218
           dy  0.0000145-0.0000461-0.0001085 0.0000323 0.0000902-0.0000628
           dz  0.0000278-0.0000590-0.0000244-0.0000148 0.0000065 0.0000043
  24 h     dx -0.0000029 0.0000453 0.0000523-0.0000240 0.0001261-0.0000218
           dy  0.0000145-0.0000461 0.0001085 0.0000323 0.0000902 0.0000628
           dz -0.0000278 0.0000590-0.0000244 0.0000148-0.0000065 0.0000043
  25 h     dx  0.0000306 0.0005370 0.0000000 0.0001477-0.0002313 0.0000000
           dy -0.0002430-0.0000295 0.0000000-0.0000275-0.0000514 0.0000000
           dz  0.0000000 0.0000000-0.0006893 0.0000000 0.0000000-0.0000652
  26 h     dx  0.0000425-0.0000800 0.0000000-0.0000980 0.0001714 0.0000000
           dy -0.0003210-0.0001598 0.0000000-0.0002134 0.0002067 0.0000000
           dz  0.0000000 0.0000000-0.0004198 0.0000000 0.0000000-0.0003152
  27 h     dx -0.0001330-0.0003780-0.0001055-0.0008736 0.0008775 0.0012324
           dy  0.0003099 0.0001078 0.0001627-0.0005007-0.0012833-0.0001269
           dz  0.0000177 0.0000810 0.0000104 0.0000832-0.0000366-0.0002907
  28 h     dx -0.0001330-0.0003780 0.0001055-0.0008736 0.0008775-0.0012324
           dy  0.0003099 0.0001078-0.0001627-0.0005007-0.0012833 0.0001269
           dz -0.0000177-0.0000810 0.0000104-0.0000832 0.0000366-0.0002907
  29 h     dx -0.0002639-0.0034527-0.0018319 0.0007397-0.0003547-0.0000882
           dy  0.0025914-0.0010818-0.0000555 0.0003539-0.0006724 0.0002034
           dz  0.0000844-0.0006318-0.0004359 0.0001041 0.0000926-0.0000931
  30 h     dx -0.0002639-0.0034527 0.0018319 0.0007397-0.0003547 0.0000882
           dy  0.0025914-0.0010818 0.0000555 0.0003539-0.0006724-0.0002034
           dz -0.0000844 0.0006318-0.0004359-0.0001041-0.0000926-0.0000931

   ATOM              7 c                           8 c 
                  dx        dy        dz        dx        dy        dz
   7 c     dx  0.5508816
           dy -0.0641883 0.7883521
           dz  0.0000000 0.0000000 0.1297007
   8 c     dx  0.0030743-0.0055342 0.0000000 0.0522346
           dy  0.0109106-0.5717753 0.0000000-0.2009167 0.9292816
           dz  0.0000000 0.0000000-0.0346439 0.0000000 0.0000000 0.0639811
   9 n     dx -0.0177204-0.0036026 0.0000000 0.0650488 0.0186377 0.0000000
           dy -0.0007617 0.0011080 0.0000000-0.0257077-0.0174967 0.0000000
           dz  0.0000000 0.0000000 0.0009088 0.0000000 0.0000000-0.0098911
  10 c     dx  0.0000249 0.0006352 0.0000000-0.0507369-0.0070908 0.0000000
           dy  0.0014869-0.0136249 0.0000000 0.0505756 0.0160334 0.0000000
           dz  0.0000000 0.0000000-0.0033623 0.0000000 0.0000000 0.0021121
  11 c     dx -0.0021303 0.0033312 0.0000000 0.0136964 0.0014397 0.0000000
           dy  0.0022920-0.0035205 0.0000000-0.0103604-0.0002109 0.0000000
           dz  0.0000000 0.0000000 0.0002299 0.0000000 0.0000000 0.0001819
  12 c     dx -0.0020491-0.0008012 0.0000000-0.0048169-0.0007017 0.0000000
           dy -0.0007524 0.0018914 0.0000000 0.0011775-0.0008584 0.0000000
           dz  0.0000000 0.0000000 0.0002256 0.0000000 0.0000000 0.0004227
  13 c     dx -0.0001079 0.0010381 0.0000000 0.0036994-0.0001012 0.0000000
           dy -0.0036710 0.0033481 0.0000000 0.0135631 0.0026882 0.0000000
           dz  0.0000000 0.0000000 0.0004122 0.0000000 0.0000000 0.0001634
  14 n     dx  0.0018384-0.0016938 0.0000000-0.0090431-0.0020719 0.0000000
           dy  0.0011322-0.0018581 0.0000000-0.0044854-0.0006440 0.0000000
           dz  0.0000000 0.0000000-0.0005963 0.0000000 0.0000000-0.0002345
  15 c     dx -0.0011540 0.0010353 0.0000000 0.0095685 0.0029007 0.0000000
           dy  0.0002639 0.0019927 0.0000000 0.0013475-0.0004467 0.0000000
           dz  0.0000000 0.0000000-0.0004937 0.0000000 0.0000000 0.0001859
  16 c     dx  0.0013871-0.0048057 0.0000000-0.0086778-0.0003065 0.0000000
           dy -0.0000389-0.0003874 0.0000000-0.0026422-0.0011047 0.0000000
           dz  0.0000000 0.0000000-0.0002612 0.0000000 0.0000000-0.0006723
  17 c     dx  0.0002336 0.0021190 0.0000000 0.0013440-0.0001998 0.0000000
           dy  0.0020702-0.0003913 0.0000000 0.0045093 0.0018962 0.0000000
           dz  0.0000000 0.0000000 0.0002256 0.0000000 0.0000000 0.0004122
  18 c     dx -0.2925821-0.0061668 0.0000000-0.0078434-0.0221724 0.0000000
           dy -0.0277870-0.0033051 0.0000000 0.0449511-0.0064603 0.0000000
           dz  0.0000000 0.0000000-0.0660976 0.0000000 0.0000000-0.0053533
  19 c     dx -0.0030853 0.0082818 0.0000000-0.0001601-0.0020965 0.0000000
           dy -0.0048023-0.0150846 0.0000000-0.0248672-0.0068008 0.0000000
           dz  0.0000000 0.0000000-0.0039058 0.0000000 0.0000000-0.0001921
  20 n     dx  0.0003166 0.0006391 0.0000000 0.0018599 0.0002211 0.0000000
           dy -0.0026821 0.0047203 0.0000000 0.0170862 0.0058734 0.0000000
           dz  0.0000000 0.0000000 0.0006124 0.0000000 0.0000000-0.0000600
  21 c     dx -0.0016420 0.0025347 0.0000000 0.0087702 0.0030288 0.0000000
           dy  0.0006556-0.0040333 0.0000000-0.0106355-0.0023825 0.0000000
           dz  0.0000000 0.0000000 0.0004227 0.0000000 0.0000000 0.0001634
  22 h     dx -0.0000620 0.0000379 0.0000000-0.0001973-0.0001392 0.0000000
           dy -0.0000187-0.0001817 0.0000000 0.0000140 0.0001582 0.0000000
           dz  0.0000000 0.0000000-0.0000990 0.0000000 0.0000000 0.0000644
  23 h     dx -0.0160620 0.0014355-0.0201704-0.0006115 0.0026980-0.0001434
           dy -0.0104656-0.0065424 0.0052985-0.0053117 0.0044921-0.0104653
           dz  0.0032630-0.0009505 0.0071304 0.0000503 0.0006065 0.0016932
  24 h     dx -0.0160620 0.0014355 0.0201704-0.0006115 0.0026980 0.0001434
           dy -0.0104656-0.0065424-0.0052985-0.0053117 0.0044921 0.0104653
           dz -0.0032630 0.0009505 0.0071304-0.0000503-0.0006065 0.0016932
  25 h     dx -0.0107164-0.0202589 0.0000000-0.0828432 0.1754111 0.0000000
           dy  0.0075485-0.0029757 0.0000000 0.1486469-0.2993873 0.0000000
           dz  0.0000000 0.0000000 0.0002059 0.0000000 0.0000000-0.0201881
  26 h     dx  0.0001153-0.0001143 0.0000000-0.0001063-0.0000530 0.0000000
           dy  0.0002970 0.0002157 0.0000000-0.0002881-0.0002724 0.0000000
           dz  0.0000000 0.0000000 0.0000641 0.0000000 0.0000000 0.0001323
  27 h     dx -0.0000047-0.0001685-0.0000256-0.0002070 0.0002127 0.0002558
           dy  0.0000203 0.0000669 0.0000070 0.0002094-0.0000489-0.0001489
           dz -0.0000027 0.0000301-0.0000083 0.0000447-0.0000066-0.0000136
  28 h     dx -0.0000047-0.0001685 0.0000256-0.0002070 0.0002127-0.0002558
           dy  0.0000203 0.0000669-0.0000070 0.0002094-0.0000489 0.0001489
           dz  0.0000027-0.0000301-0.0000083-0.0000447 0.0000066-0.0000136
  29 h     dx -0.0001254 0.0002470 0.0000128 0.0000047-0.0001745-0.0000180
           dy -0.0001213 0.0000143 0.0000212 0.0000360-0.0000512-0.0000186
           dz  0.0000032 0.0000353 0.0000272 0.0000343-0.0000389 0.0000102
  30 h     dx -0.0001254 0.0002470-0.0000128 0.0000047-0.0001745 0.0000180
           dy -0.0001213 0.0000143-0.0000212 0.0000360-0.0000512 0.0000186
           dz -0.0000032-0.0000353 0.0000272-0.0000343 0.0000389 0.0000102

   ATOM              9 n                          10 c 
                  dx        dy        dz        dx        dy        dz
   9 n     dx  0.1281188
           dy -0.3226390 0.8353274
           dz  0.0000000 0.0000000 0.0307694
  10 c     dx -0.1424422 0.3049616 0.0000000 0.2280597
           dy  0.3167174-0.7781902 0.0000000-0.2635946 1.0807260
           dz  0.0000000 0.0000000-0.0407207 0.0000000 0.0000000 0.0867015
  11 c     dx -0.0160990 0.0152041 0.0000000 0.0317383-0.0205931 0.0000000
           dy  0.0115293-0.0091256 0.0000000-0.0211243 0.0087961 0.0000000
           dz  0.0000000 0.0000000 0.0005228 0.0000000 0.0000000-0.0070039
  12 c     dx  0.0045040-0.0030567 0.0000000-0.0135915-0.0022160 0.0000000
           dy  0.0002645 0.0005329 0.0000000 0.0108681-0.0045785 0.0000000
           dz  0.0000000 0.0000000 0.0006124 0.0000000 0.0000000-0.0039058
  13 c     dx -0.0026242 0.0023678 0.0000000 0.0065349-0.0017689 0.0000000
           dy -0.0144973 0.0103576 0.0000000 0.0210018-0.0134959 0.0000000
           dz  0.0000000 0.0000000-0.0000600 0.0000000 0.0000000-0.0001921
  14 n     dx  0.0084250-0.0048422 0.0000000-0.0110589 0.0052492 0.0000000
           dy  0.0049266-0.0029689 0.0000000-0.0071687 0.0028492 0.0000000
           dz  0.0000000 0.0000000 0.0003494 0.0000000 0.0000000-0.0000000
  15 c     dx -0.0086551 0.0051994 0.0000000 0.0098586-0.0052783 0.0000000
           dy -0.0014853 0.0014430 0.0000000-0.0004738-0.0039823 0.0000000
           dz  0.0000000 0.0000000-0.0003669 0.0000000 0.0000000 0.0006666
  16 c     dx  0.0060766-0.0041258 0.0000000-0.0049910 0.0054593 0.0000000
           dy  0.0022064-0.0018359 0.0000000-0.0019572 0.0025077 0.0000000
           dz  0.0000000 0.0000000 0.0005876 0.0000000 0.0000000-0.0003789
  17 c     dx -0.0011772-0.0000472 0.0000000 0.0017686 0.0006521 0.0000000
           dy -0.0028732 0.0011575 0.0000000 0.0014235-0.0009299 0.0000000
           dz  0.0000000 0.0000000-0.0005963 0.0000000 0.0000000-0.0004937
  18 c     dx -0.0082695 0.0032372 0.0000000 0.0027313-0.0064576 0.0000000
           dy -0.0225234 0.0083384 0.0000000 0.0112593-0.0141531 0.0000000
           dz  0.0000000 0.0000000 0.0030376 0.0000000 0.0000000 0.0002430
  19 c     dx -0.0014589 0.0002934 0.0000000-0.0030128-0.0021530 0.0000000
           dy  0.0127112-0.0067507 0.0000000-0.0069575 0.0088891 0.0000000
           dz  0.0000000 0.0000000-0.0000000 0.0000000 0.0000000 0.0006666
  20 n     dx -0.0000839-0.0000704 0.0000000 0.0005267 0.0001017 0.0000000
           dy -0.0098392 0.0055400 0.0000000 0.0067864-0.0077388 0.0000000
           dz  0.0000000 0.0000000 0.0003494 0.0000000 0.0000000-0.0003669
  21 c     dx -0.0055832 0.0040695 0.0000000 0.0038966-0.0061753 0.0000000
           dy  0.0064829-0.0041039 0.0000000-0.0046221 0.0052252 0.0000000
           dz  0.0000000 0.0000000-0.0002345 0.0000000 0.0000000 0.0001859
  22 h     dx  0.0000625 0.0000353 0.0000000 0.0002769 0.0001228 0.0000000
           dy  0.0000382 0.0000390 0.0000000-0.0002214-0.0001071 0.0000000
           dz  0.0000000 0.0000000-0.0001246 0.0000000 0.0000000 0.0000682
  23 h     dx -0.0000121 0.0002198 0.0003523 0.0004668-0.0000596-0.0000112
           dy -0.0003041 0.0000238 0.0006175-0.0002181 0.0003273 0.0015095
           dz  0.0001493-0.0000127 0.0000087 0.0000672 0.0000462 0.0000246
  24 h     dx -0.0000121 0.0002198-0.0003523 0.0004668-0.0000596 0.0000112
           dy -0.0003041 0.0000238-0.0006175-0.0002181 0.0003273-0.0015095
           dz -0.0001493 0.0000127 0.0000087-0.0000672-0.0000462 0.0000246
  25 h     dx -0.0026056 0.0041210 0.0000000-0.0000392-0.0021455 0.0000000
           dy -0.0034471 0.0016353 0.0000000 0.0002426-0.0006202 0.0000000
           dz  0.0000000 0.0000000-0.0014109 0.0000000 0.0000000 0.0012675
  26 h     dx  0.0001252-0.0001141 0.0000000-0.0002391 0.0001806 0.0000000
           dy  0.0003496-0.0001744 0.0000000 0.0000207 0.0007697 0.0000000
           dz  0.0000000 0.0000000-0.0000835 0.0000000 0.0000000 0.0001438
  27 h     dx -0.0000988 0.0003973 0.0003113-0.0001887-0.0007088-0.0021102
           dy -0.0003190 0.0002842-0.0001236 0.0007674-0.0001566 0.0013694
           dz -0.0001544 0.0001333 0.0000262 0.0005360-0.0000895 0.0004414
  28 h     dx -0.0000988 0.0003973-0.0003113-0.0001887-0.0007088 0.0021102
           dy -0.0003190 0.0002842 0.0001236 0.0007674-0.0001566-0.0013694
           dz  0.0001544-0.0001333 0.0000262-0.0005360 0.0000895 0.0004414
  29 h     dx -0.0000320 0.0000306 0.0000572 0.0000348-0.0000356-0.0000179
           dy -0.0000254-0.0000173 0.0000340 0.0000956 0.0000256-0.0000304
           dz -0.0000189-0.0000102-0.0000037-0.0000141-0.0000029 0.0000073
  30 h     dx -0.0000320 0.0000306-0.0000572 0.0000348-0.0000356 0.0000179
           dy -0.0000254-0.0000173-0.0000340 0.0000956 0.0000256 0.0000304
           dz  0.0000189 0.0000102-0.0000037 0.0000141 0.0000029 0.0000073

   ATOM             11 c                          12 c 
                  dx        dy        dz        dx        dy        dz
  11 c     dx  0.1722887
           dy  0.2481893 0.4267221
           dz  0.0000000 0.0000000 0.5970883
  12 c     dx -0.0609219-0.1275823 0.0000000 0.7845732
           dy -0.1059621-0.2349652 0.0000000-0.0707335 0.5546605
           dz  0.0000000 0.0000000-0.0660976 0.0000000 0.0000000 0.1297007
  13 c     dx -0.0166695 0.0272682 0.0000000-0.4303909 0.2393507 0.0000000
           dy -0.0398554 0.0023659 0.0000000 0.2557955-0.1383100 0.0000000
           dz  0.0000000 0.0000000-0.0053533 0.0000000 0.0000000-0.0346439
  14 n     dx  0.0125376-0.0152502 0.0000000-0.0017093-0.0084823 0.0000000
           dy  0.0105104-0.0124687 0.0000000-0.0056414-0.0149031 0.0000000
           dz  0.0000000 0.0000000 0.0030376 0.0000000 0.0000000 0.0009088
  15 c     dx -0.0120112 0.0149692 0.0000000-0.0111313 0.0049542 0.0000000
           dy -0.0027477 0.0005894 0.0000000 0.0058058-0.0024687 0.0000000
           dz  0.0000000 0.0000000 0.0002430 0.0000000 0.0000000-0.0033623
  16 c     dx  0.0064349-0.0076092 0.0000000-0.0056079-0.0002842 0.0000000
           dy  0.0023525-0.0025535 0.0000000-0.0013234-0.0000429 0.0000000
           dz  0.0000000 0.0000000-0.0002379 0.0000000 0.0000000 0.0002299
  17 c     dx -0.0020415 0.0028262 0.0000000 0.0015790-0.0013423 0.0000000
           dy -0.0019406 0.0030412 0.0000000-0.0012935-0.0017366 0.0000000
           dz  0.0000000 0.0000000-0.0002612 0.0000000 0.0000000 0.0002256
  18 c     dx -0.0025827 0.0024029 0.0000000 0.0021540-0.0004039 0.0000000
           dy -0.0075588 0.0064640 0.0000000 0.0043629-0.0011543 0.0000000
           dz  0.0000000 0.0000000-0.0002379 0.0000000 0.0000000-0.0002612
  19 c     dx  0.0021495-0.0013367 0.0000000 0.0006434-0.0013017 0.0000000
           dy  0.0060797-0.0046328 0.0000000-0.0020731 0.0001952 0.0000000
           dz  0.0000000 0.0000000-0.0003789 0.0000000 0.0000000-0.0004937
  20 n     dx -0.0006889 0.0002197 0.0000000-0.0006908 0.0003280 0.0000000
           dy -0.0061125 0.0049296 0.0000000 0.0031540 0.0006711 0.0000000
           dz  0.0000000 0.0000000 0.0005876 0.0000000 0.0000000-0.0005963
  21 c     dx -0.0042748 0.0028485 0.0000000 0.0036242 0.0015163 0.0000000
           dy  0.0051843-0.0055077 0.0000000-0.0031928-0.0003840 0.0000000
           dz  0.0000000 0.0000000-0.0006723 0.0000000 0.0000000 0.0004122
  22 h     dx -0.0000603 0.0003682 0.0000000 0.0001115-0.0002948 0.0000000
           dy  0.0000316-0.0002888 0.0000000 0.0001165 0.0002195 0.0000000
           dz  0.0000000 0.0000000 0.0001027 0.0000000 0.0000000 0.0000641
  23 h     dx -0.0000002-0.0000174-0.0000311-0.0000750 0.0000922-0.0000119
           dy  0.0000333-0.0000038-0.0000765-0.0002761-0.0000360 0.0000217
           dz  0.0000526-0.0000556-0.0000104-0.0000290 0.0000205 0.0000272
  24 h     dx -0.0000002-0.0000174 0.0000311-0.0000750 0.0000922 0.0000119
           dy  0.0000333-0.0000038 0.0000765-0.0002761-0.0000360-0.0000217
           dz -0.0000526 0.0000556-0.0000104 0.0000290-0.0000205 0.0000272
  25 h     dx  0.0001844-0.0002439 0.0000000-0.0001601 0.0000754 0.0000000
           dy -0.0001688 0.0000680 0.0000000 0.0000187-0.0000837 0.0000000
           dz  0.0000000 0.0000000 0.0002310 0.0000000 0.0000000-0.0000990
  26 h     dx  0.0008209-0.0011890 0.0000000 0.0005929-0.0140779 0.0000000
           dy  0.0091500 0.0001828 0.0000000 0.0137295-0.0142849 0.0000000
           dz  0.0000000 0.0000000 0.0003728 0.0000000 0.0000000 0.0002059
  27 h     dx -0.0518449-0.0583463-0.0826615-0.0050121 0.0040860-0.0146738
           dy -0.0447041-0.0822581-0.0956748-0.0078151-0.0175923-0.0148188
           dz -0.0771370-0.0976528-0.2669091 0.0024547 0.0023506 0.0071304
  28 h     dx -0.0518449-0.0583463 0.0826615-0.0050121 0.0040860 0.0146738
           dy -0.0447041-0.0822581 0.0956748-0.0078151-0.0175923 0.0148188
           dz  0.0771370 0.0976528-0.2669091-0.0024547-0.0023506 0.0071304
  29 h     dx -0.0000857 0.0001790 0.0000462 0.0001131-0.0000883 0.0000188
           dy -0.0000378 0.0000560 0.0000384 0.0001004-0.0000509 0.0000187
           dz -0.0000235 0.0000212-0.0000002 0.0000274-0.0000127-0.0000083
  30 h     dx -0.0000857 0.0001790-0.0000462 0.0001131-0.0000883-0.0000188
           dy -0.0000378 0.0000560-0.0000384 0.0001004-0.0000509-0.0000187
           dz  0.0000235-0.0000212-0.0000002-0.0000274 0.0000127-0.0000083

   ATOM             13 c                          14 n 
                  dx        dy        dz        dx        dy        dz
  13 c     dx  0.8840188
           dy -0.2793142 0.0974974
           dz  0.0000000 0.0000000 0.0639811
  14 n     dx  0.0062010 0.0596835 0.0000000 0.9379388
           dy  0.0153380 0.0413510 0.0000000-0.1449108 0.0255074
           dz  0.0000000 0.0000000-0.0098911 0.0000000 0.0000000 0.0307694
  15 c     dx -0.0194886-0.0686168 0.0000000-0.8884481 0.1139893 0.0000000
           dy -0.0109505-0.0152149 0.0000000 0.1257452-0.0321843 0.0000000
           dz  0.0000000 0.0000000 0.0021121 0.0000000 0.0000000-0.0407207
  16 c     dx  0.0071287 0.0141523 0.0000000-0.0224449-0.0078655 0.0000000
           dy  0.0023522 0.0063568 0.0000000-0.0115403-0.0027797 0.0000000
           dz  0.0000000 0.0000000 0.0001819 0.0000000 0.0000000 0.0005228
  17 c     dx -0.0020541-0.0027726 0.0000000 0.0027347 0.0007570 0.0000000
           dy -0.0008935-0.0036213 0.0000000 0.0040782 0.0023022 0.0000000
           dz  0.0000000 0.0000000 0.0004227 0.0000000 0.0000000 0.0006124
  18 c     dx -0.0017212-0.0013741 0.0000000 0.0009733 0.0007400 0.0000000
           dy -0.0037099-0.0080613 0.0000000 0.0070722 0.0032673 0.0000000
           dz  0.0000000 0.0000000-0.0006723 0.0000000 0.0000000 0.0005876
  19 c     dx  0.0002176 0.0040512 0.0000000-0.0026898-0.0019588 0.0000000
           dy  0.0024981 0.0089042 0.0000000-0.0086435-0.0045223 0.0000000
           dz  0.0000000 0.0000000 0.0001859 0.0000000 0.0000000-0.0003669
  20 n     dx  0.0000956-0.0007909 0.0000000-0.0001570 0.0000282 0.0000000
           dy -0.0032043-0.0097827 0.0000000 0.0097970 0.0056131 0.0000000
           dz  0.0000000 0.0000000-0.0002345 0.0000000 0.0000000 0.0003494
  21 c     dx -0.0028882-0.0097597 0.0000000 0.0123644 0.0058436 0.0000000
           dy  0.0039045 0.0092758 0.0000000-0.0110215-0.0046310 0.0000000
           dz  0.0000000 0.0000000 0.0001634 0.0000000 0.0000000-0.0000600
  22 h     dx -0.0000832 0.0002747 0.0000000-0.0002014-0.0001609 0.0000000
           dy  0.0000397-0.0002956 0.0000000 0.0003027 0.0001523 0.0000000
           dz  0.0000000 0.0000000 0.0001323 0.0000000 0.0000000-0.0000835
  23 h     dx  0.0000227-0.0000464 0.0000071-0.0000232 0.0000203-0.0000009
           dy  0.0001641-0.0000693-0.0000249-0.0000357-0.0000261 0.0000665
           dz  0.0000508 0.0000102 0.0000102-0.0000006-0.0000214-0.0000037
  24 h     dx  0.0000227-0.0000464-0.0000071-0.0000232 0.0000203 0.0000009
           dy  0.0001641-0.0000693 0.0000249-0.0000357-0.0000261-0.0000665
           dz -0.0000508-0.0000102 0.0000102 0.0000006 0.0000214-0.0000037
  25 h     dx  0.0001235-0.0001993 0.0000000 0.0000131-0.0000097 0.0000000
           dy -0.0000460-0.0001626 0.0000000-0.0000067 0.0000884 0.0000000
           dz  0.0000000 0.0000000 0.0000644 0.0000000 0.0000000-0.0001246
  26 h     dx -0.3855725 0.0261340 0.0000000 0.0002833 0.0017792 0.0000000
           dy -0.0006302 0.0033420 0.0000000-0.0057889-0.0012536 0.0000000
           dz  0.0000000 0.0000000-0.0201881 0.0000000 0.0000000-0.0014109
  27 h     dx  0.0043480 0.0024484 0.0089915 0.0000513 0.0002675-0.0003586
           dy -0.0055613-0.0004673-0.0053568-0.0002565-0.0000396 0.0006139
           dz -0.0005001 0.0003468 0.0016932 0.0000856 0.0001229 0.0000087
  28 h     dx  0.0043480 0.0024484-0.0089915 0.0000513 0.0002675 0.0003586
           dy -0.0055613-0.0004673 0.0053568-0.0002565-0.0000396-0.0006139
           dz  0.0005001-0.0003468 0.0016932-0.0000856-0.0001229 0.0000087
  29 h     dx -0.0002712-0.0001724-0.0002569 0.0001546 0.0001728-0.0002627
           dy -0.0001756 0.0000153-0.0001471-0.0005436 0.0000308-0.0002078
           dz -0.0000281-0.0000354-0.0000136 0.0001927 0.0000671 0.0000262
  30 h     dx -0.0002712-0.0001724 0.0002569 0.0001546 0.0001728 0.0002627
           dy -0.0001756 0.0000153 0.0001471-0.0005436 0.0000308 0.0002078
           dz  0.0000281 0.0000354-0.0000136-0.0001927-0.0000671 0.0000262

   ATOM             15 c                          16 c 
                  dx        dy        dz        dx        dy        dz
  15 c     dx  1.0958391
           dy -0.2374180 0.2129466
           dz  0.0000000 0.0000000 0.0867015
  16 c     dx  0.0325959 0.0206292 0.0000000 0.1481756
           dy  0.0200980 0.0079386 0.0000000-0.2342675 0.4508353
           dz  0.0000000 0.0000000-0.0070039 0.0000000 0.0000000 0.5970883
  17 c     dx -0.0105782-0.0126078 0.0000000-0.0903267 0.1229390 0.0000000
           dy  0.0004763-0.0075918 0.0000000 0.1445592-0.2055604 0.0000000
           dz  0.0000000 0.0000000-0.0039058 0.0000000 0.0000000-0.0660976
  18 c     dx -0.0008835-0.0004143 0.0000000 0.0019698 0.0002254 0.0000000
           dy -0.0078307-0.0015999 0.0000000 0.0101872 0.0019116 0.0000000
           dz  0.0000000 0.0000000-0.0003789 0.0000000 0.0000000-0.0002379
  19 c     dx  0.0019686 0.0050291 0.0000000-0.0078528 0.0003469 0.0000000
           dy  0.0098336 0.0039076 0.0000000-0.0173700-0.0035690 0.0000000
           dz  0.0000000 0.0000000 0.0006666 0.0000000 0.0000000 0.0002430
  20 n     dx  0.0002034 0.0006664 0.0000000-0.0041647-0.0008673 0.0000000
           dy -0.0117514-0.0084130 0.0000000 0.0248933 0.0042336 0.0000000
           dz  0.0000000 0.0000000-0.0000000 0.0000000 0.0000000 0.0030376
  21 c     dx -0.0168163-0.0075199 0.0000000 0.0030574 0.0284660 0.0000000
           dy  0.0152507 0.0098553 0.0000000-0.0386576-0.0173611 0.0000000
           dz  0.0000000 0.0000000-0.0001921 0.0000000 0.0000000-0.0053533
  22 h     dx  0.0004303-0.0004072 0.0000000-0.0031049-0.0068834 0.0000000
           dy -0.0005671 0.0001003 0.0000000 0.0034555 0.0041086 0.0000000
           dz  0.0000000 0.0000000 0.0001438 0.0000000 0.0000000 0.0003728
  23 h     dx  0.0000020-0.0000767 0.0000174-0.0000405 0.0000117-0.0000102
           dy  0.0000546 0.0000585-0.0000307-0.0002051 0.0000108 0.0000592
           dz -0.0000045-0.0000136 0.0000073-0.0000301-0.0000098-0.0000002
  24 h     dx  0.0000020-0.0000767-0.0000174-0.0000405 0.0000117 0.0000102
           dy  0.0000546 0.0000585 0.0000307-0.0002051 0.0000108-0.0000592
           dz  0.0000045 0.0000136 0.0000073 0.0000301 0.0000098-0.0000002
  25 h     dx  0.0000316 0.0003630 0.0000000-0.0004048 0.0001673 0.0000000
           dy  0.0000189 0.0001381 0.0000000-0.0001693 0.0000557 0.0000000
           dz  0.0000000 0.0000000 0.0000682 0.0000000 0.0000000 0.0001027
  26 h     dx  0.0003491-0.0004667 0.0000000 0.0002759 0.0001161 0.0000000
           dy  0.0019213-0.0010084 0.0000000 0.0001911-0.0000234 0.0000000
           dz  0.0000000 0.0000000 0.0012675 0.0000000 0.0000000 0.0002310
  27 h     dx  0.0004824 0.0002091-0.0013128-0.0000098-0.0000278 0.0000506
           dy  0.0000506 0.0003117 0.0007451 0.0000230 0.0000058-0.0000652
           dz -0.0000064 0.0000813 0.0000246 0.0000745 0.0000178-0.0000104
  28 h     dx  0.0004824 0.0002091 0.0013128-0.0000098-0.0000278-0.0000506
           dy  0.0000506 0.0003117-0.0007451 0.0000230 0.0000058 0.0000652
           dz  0.0000064-0.0000813 0.0000246-0.0000745-0.0000178-0.0000104
  29 h     dx -0.0001900-0.0007666 0.0022411-0.0300327 0.0321108-0.0415260
           dy  0.0007095-0.0001553 0.0011428 0.0457530-0.1040703 0.1194243
           dz -0.0003455-0.0004195 0.0004414-0.0460013 0.1156290-0.2669091
  30 h     dx -0.0001900-0.0007666-0.0022411-0.0300327 0.0321108 0.0415260
           dy  0.0007095-0.0001553-0.0011428 0.0457530-0.1040703-0.1194243
           dz  0.0003455 0.0004195 0.0004414 0.0460013-0.1156290-0.2669091

   ATOM             17 c                          18 c 
                  dx        dy        dz        dx        dy        dz
  17 c     dx  0.6733957
           dy  0.1349219 0.6658380
           dz  0.0000000 0.0000000 0.1297007
  18 c     dx -0.0007380-0.0014882 0.0000000 0.5780520
           dy -0.0025274-0.0049128 0.0000000-0.0139217 0.0209589
           dz  0.0000000 0.0000000 0.0002299 0.0000000 0.0000000 0.5970883
  19 c     dx -0.0092936-0.0068669 0.0000000-0.0035325 0.0002295 0.0000000
           dy -0.0060152-0.0043065 0.0000000 0.0007607 0.0440669 0.0000000
           dz  0.0000000 0.0000000-0.0033623 0.0000000 0.0000000-0.0070039
  20 n     dx -0.0054889 0.0078235 0.0000000 0.0007069-0.0055012 0.0000000
           dy  0.0106645-0.0111235 0.0000000-0.0018264-0.0259316 0.0000000
           dz  0.0000000 0.0000000 0.0009088 0.0000000 0.0000000 0.0005228
  21 c     dx -0.4257348-0.2584837 0.0000000-0.0005969-0.0096919 0.0000000
           dy -0.2420389-0.1429661 0.0000000 0.0021082 0.0140823 0.0000000
           dz  0.0000000 0.0000000-0.0346439 0.0000000 0.0000000 0.0001819
  22 h     dx -0.0104146-0.0073743 0.0000000-0.0000816 0.0000153 0.0000000
           dy  0.0204331-0.0032775 0.0000000 0.0000903 0.0003340 0.0000000
           dz  0.0000000 0.0000000 0.0002059 0.0000000 0.0000000 0.0002310
  23 h     dx -0.0000151-0.0000264-0.0000068-0.1192769 0.0057722-0.1241875
           dy  0.0001624 0.0000774 0.0000256 0.0194144-0.0148261 0.0237496
           dz  0.0000247 0.0000174-0.0000083-0.1231383 0.0179762-0.2669091
  24 h     dx -0.0000151-0.0000264 0.0000068-0.1192769 0.0057722 0.1241875
           dy  0.0001624 0.0000774-0.0000256 0.0194144-0.0148261-0.0237496
           dz -0.0000247-0.0000174-0.0000083 0.1231383-0.0179762-0.2669091
  25 h     dx  0.0002697-0.0002079 0.0000000 0.0037895-0.0074360 0.0000000
           dy  0.0002035 0.0000613 0.0000000 0.0029029-0.0027859 0.0000000
           dz  0.0000000 0.0000000 0.0000641 0.0000000 0.0000000 0.0003728
  26 h     dx -0.0001435-0.0000283 0.0000000-0.0000585-0.0000306 0.0000000
           dy -0.0000849-0.0001002 0.0000000-0.0003672-0.0002905 0.0000000
           dz  0.0000000 0.0000000-0.0000990 0.0000000 0.0000000 0.0001027
  27 h     dx  0.0000339 0.0002132-0.0000247 0.0000817 0.0001345-0.0000564
           dy -0.0001551-0.0001449 0.0000005-0.0000823-0.0001114 0.0000208
           dz -0.0000322-0.0000149 0.0000272-0.0000066-0.0000310-0.0000002
  28 h     dx  0.0000339 0.0002132 0.0000247 0.0000817 0.0001345 0.0000564
           dy -0.0001551-0.0001449-0.0000005-0.0000823-0.0001114-0.0000208
           dz  0.0000322 0.0000149 0.0000272 0.0000066 0.0000310-0.0000002
  29 h     dx -0.0128325 0.0123302-0.0054966 0.0000040-0.0000309-0.0000818
           dy  0.0004291-0.0097719 0.0201173 0.0000198-0.0000079-0.0000113
           dz  0.0008083-0.0033011 0.0071304-0.0000218-0.0000734-0.0000104
  30 h     dx -0.0128325 0.0123302 0.0054966 0.0000040-0.0000309 0.0000818
           dy  0.0004291-0.0097719-0.0201173 0.0000198-0.0000079 0.0000113
           dz -0.0008083 0.0033011 0.0071304 0.0000218 0.0000734-0.0000104

   ATOM             19 c                          20 n 
                  dx        dy        dz        dx        dy        dz
  19 c     dx  0.6392798
           dy  0.5010127 0.6695059
           dz  0.0000000 0.0000000 0.0867015
  20 n     dx -0.3500583-0.4248288 0.0000000 0.3791117
           dy -0.4365847-0.5705741 0.0000000 0.4675498 0.5843345
           dz  0.0000000 0.0000000-0.0407207 0.0000000 0.0000000 0.0307694
  21 c     dx  0.0181703 0.0468744 0.0000000 0.0000783-0.0561485 0.0000000
           dy -0.0107919-0.0528738 0.0000000-0.0118030 0.0474738 0.0000000
           dz  0.0000000 0.0000000 0.0021121 0.0000000 0.0000000-0.0098911
  22 h     dx -0.0012989-0.0009699 0.0000000 0.0008669 0.0054519 0.0000000
           dy  0.0014182 0.0006396 0.0000000-0.0021161-0.0018372 0.0000000
           dz  0.0000000 0.0000000 0.0012675 0.0000000 0.0000000-0.0014109
  23 h     dx -0.0001393-0.0007388 0.0001308 0.0002223 0.0005044 0.0000486
           dy  0.0007373-0.0002060 0.0025122-0.0002119-0.0000369-0.0003314
           dz  0.0001905-0.0005090 0.0004414 0.0000382 0.0002004 0.0000262
  24 h     dx -0.0001393-0.0007388-0.0001308 0.0002223 0.0005044-0.0000486
           dy  0.0007373-0.0002060-0.0025122-0.0002119-0.0000369 0.0003314
           dz -0.0001905 0.0005090 0.0004414-0.0000382-0.0002004 0.0000262
  25 h     dx  0.0006047 0.0004664 0.0000000 0.0000025-0.0004204 0.0000000
           dy  0.0003066-0.0000741 0.0000000 0.0000432-0.0000516 0.0000000
           dz  0.0000000 0.0000000 0.0001438 0.0000000 0.0000000-0.0000835
  26 h     dx -0.0000539 0.0000305 0.0000000 0.0000767-0.0000300 0.0000000
           dy -0.0003137 0.0002236 0.0000000-0.0000271 0.0000248 0.0000000
           dz  0.0000000 0.0000000 0.0000682 0.0000000 0.0000000-0.0001246
  27 h     dx  0.0000539-0.0000846 0.0000353-0.0000187 0.0000331-0.0000580
           dy  0.0000466 0.0000065-0.0000003-0.0000229-0.0000306 0.0000325
           dz  0.0000095-0.0000107 0.0000073 0.0000183-0.0000113-0.0000037
  28 h     dx  0.0000539-0.0000846-0.0000353-0.0000187 0.0000331 0.0000580
           dy  0.0000466 0.0000065 0.0000003-0.0000229-0.0000306-0.0000325
           dz -0.0000095 0.0000107 0.0000073-0.0000183 0.0000113-0.0000037
  29 h     dx  0.0002419 0.0000883 0.0013016-0.0000217 0.0002986 0.0007109
           dy -0.0000703 0.0005522 0.0007644-0.0002253 0.0000333 0.0000036
           dz  0.0000736-0.0000351 0.0000246 0.0000637-0.0001356 0.0000087
  30 h     dx  0.0002419 0.0000883-0.0013016-0.0000217 0.0002986-0.0007109
           dy -0.0000703 0.0005522-0.0007644-0.0002253 0.0000333-0.0000036
           dz -0.0000736 0.0000351 0.0000246-0.0000637 0.0001356 0.0000087

   ATOM             21 c                          22 h 
                  dx        dy        dz        dx        dy        dz
  21 c     dx  0.5360209
           dy  0.4802308 0.4454953
           dz  0.0000000 0.0000000 0.0639811
  22 h     dx -0.1049301-0.1613987 0.0000000 0.1192776
           dy -0.1881630-0.2773005 0.0000000 0.1670693 0.2792177
           dz  0.0000000 0.0000000-0.0201881 0.0000000 0.0000000 0.0134585
  23 h     dx  0.0000943-0.0000354-0.0000011-0.0000113 0.0000073-0.0000074
           dy -0.0000387-0.0003503-0.0002960 0.0000659-0.0000591 0.0000368
           dz  0.0000166-0.0000421-0.0000136 0.0000010 0.0000013-0.0000022
  24 h     dx  0.0000943-0.0000354 0.0000011-0.0000113 0.0000073 0.0000074
           dy -0.0000387-0.0003503 0.0002960 0.0000659-0.0000591-0.0000368
           dz -0.0000166 0.0000421-0.0000136-0.0000010-0.0000013-0.0000022
  25 h     dx -0.0003786 0.0001309 0.0000000-0.0000211-0.0000141 0.0000000
           dy -0.0001042-0.0000001 0.0000000-0.0000443-0.0000093 0.0000000
           dz  0.0000000 0.0000000 0.0001323 0.0000000 0.0000000-0.0000167
  26 h     dx  0.0000152 0.0001086 0.0000000-0.0000375 0.0000047 0.0000000
           dy  0.0002618-0.0000542 0.0000000 0.0000348 0.0000071 0.0000000
           dz  0.0000000 0.0000000 0.0000644 0.0000000 0.0000000-0.0000167
  27 h     dx -0.0000972-0.0000948 0.0000251 0.0000237-0.0000374 0.0000428
           dy  0.0001156 0.0000507-0.0000063-0.0000396 0.0000366-0.0000169
           dz  0.0000166 0.0000491 0.0000102-0.0000163 0.0000093-0.0000062
  28 h     dx -0.0000972-0.0000948-0.0000251 0.0000237-0.0000374-0.0000428
           dy  0.0001156 0.0000507 0.0000063-0.0000396 0.0000366 0.0000169
           dz -0.0000166-0.0000491 0.0000102 0.0000163-0.0000093-0.0000062
  29 h     dx  0.0020844 0.0068682-0.0091349-0.0001267 0.0001295 0.0016633
           dy -0.0011415 0.0017962-0.0051085 0.0003898-0.0001862 0.0008372
           dz  0.0005503 0.0002597 0.0016932-0.0000976-0.0000264-0.0004054
  30 h     dx  0.0020844 0.0068682 0.0091349-0.0001267 0.0001295-0.0016633
           dy -0.0011415 0.0017962 0.0051085 0.0003898-0.0001862-0.0008372
           dz -0.0005503-0.0002597 0.0016932 0.0000976 0.0000264-0.0004054

   ATOM             23 h                          24 h 
                  dx        dy        dz        dx        dy        dz
  23 h     dx  0.1273519
           dy -0.0076876 0.0154812
           dz  0.1315486-0.0193611 0.2728433
  24 h     dx  0.0103620-0.0000430-0.0128854 0.1273519
           dy -0.0000430 0.0031403 0.0023963-0.0076876 0.0154812
           dz  0.0128854-0.0023963-0.0140238-0.1315486 0.0193611 0.2728433
  25 h     dx -0.0003962 0.0000261-0.0000259-0.0003962 0.0000261 0.0000259
           dy -0.0002342 0.0000833-0.0000978-0.0002342 0.0000833 0.0000978
           dz  0.0001066 0.0018591-0.0004054-0.0001066-0.0018591-0.0004054
  26 h     dx  0.0000001 0.0000238-0.0000001 0.0000001 0.0000238 0.0000001
           dy  0.0000260 0.0000603 0.0000188 0.0000260 0.0000603-0.0000188
           dz  0.0000067-0.0000455-0.0000062-0.0000067 0.0000455-0.0000062
  27 h     dx -0.0000069-0.0000298-0.0000011-0.0000035 0.0000363 0.0000012
           dy  0.0000009 0.0000038 0.0000031-0.0000034-0.0000006-0.0000033
           dz  0.0000025-0.0000055-0.0000018-0.0000001 0.0000044 0.0000017
  28 h     dx -0.0000035 0.0000363-0.0000012-0.0000069-0.0000298 0.0000011
           dy -0.0000034-0.0000006 0.0000033 0.0000009 0.0000038-0.0000031
           dz  0.0000001-0.0000044 0.0000017-0.0000025 0.0000055-0.0000018
  29 h     dx -0.0000114 0.0000272-0.0000035 0.0000129-0.0000268-0.0000038
           dy -0.0000035 0.0000083-0.0000049 0.0000129-0.0000171-0.0000023
           dz  0.0000021 0.0000025-0.0000018 0.0000022 0.0000027 0.0000017
  30 h     dx  0.0000129-0.0000268 0.0000038-0.0000114 0.0000272 0.0000035
           dy  0.0000129-0.0000171 0.0000023-0.0000035 0.0000083 0.0000049
           dz -0.0000022-0.0000027 0.0000017-0.0000021-0.0000025-0.0000018

   ATOM             25 h                          26 h 
                  dx        dy        dz        dx        dy        dz
  25 h     dx  0.0945464
           dy -0.1527907 0.3039489
           dz  0.0000000 0.0000000 0.0134585
  26 h     dx  0.0000130 0.0000245 0.0000000 0.3839189
           dy -0.0000056-0.0000435 0.0000000-0.0142786 0.0145764
           dz  0.0000000 0.0000000-0.0000167 0.0000000 0.0000000 0.0134585
  27 h     dx -0.0000788-0.0000269-0.0000355 0.0000535-0.0002857-0.0015567
           dy  0.0000317 0.0000084 0.0000120-0.0000255-0.0003664 0.0010219
           dz -0.0000007 0.0000015-0.0000022 0.0000717-0.0000713-0.0004054
  28 h     dx -0.0000788-0.0000269 0.0000355 0.0000535-0.0002857 0.0015567
           dy  0.0000317 0.0000084-0.0000120-0.0000255-0.0003664-0.0010219
           dz  0.0000007-0.0000015-0.0000022-0.0000717 0.0000713-0.0004054
  29 h     dx  0.0000667 0.0000147-0.0000360-0.0000155-0.0000683 0.0000281
           dy  0.0000125-0.0000064-0.0000286-0.0000096-0.0000550 0.0000248
           dz  0.0000162 0.0000095-0.0000062 0.0000016-0.0000002-0.0000022
  30 h     dx  0.0000667 0.0000147 0.0000360-0.0000155-0.0000683-0.0000281
           dy  0.0000125-0.0000064 0.0000286-0.0000096-0.0000550-0.0000248
           dz -0.0000162-0.0000095-0.0000062-0.0000016 0.0000002-0.0000022

   ATOM             27 h                          28 h 
                  dx        dy        dz        dx        dy        dz
  27 h     dx  0.0501065
           dy  0.0522852 0.0927266
           dz  0.0825415 0.1042438 0.2728433
  28 h     dx  0.0049830 0.0031486-0.0085180 0.0501065
           dy  0.0031486 0.0085194-0.0099609 0.0522852 0.0927266
           dz  0.0085180 0.0099609-0.0140238-0.0825415-0.1042438 0.2728433
  29 h     dx -0.0000156 0.0000103-0.0000034 0.0000136-0.0000128 0.0000032
           dy -0.0000294 0.0000115 0.0000006 0.0000179-0.0000167-0.0000006
           dz  0.0000039-0.0000021 0.0000017-0.0000060 0.0000006-0.0000018
  30 h     dx  0.0000136-0.0000128-0.0000032-0.0000156 0.0000103 0.0000034
           dy  0.0000179-0.0000167 0.0000006-0.0000294 0.0000115-0.0000006
           dz  0.0000060-0.0000006-0.0000018-0.0000039 0.0000021 0.0000017

   ATOM             29 h                          30 h 
                  dx        dy        dz        dx        dy        dz
  29 h     dx  0.0367912
           dy -0.0445977 0.1060418
           dz  0.0490071-0.1236049 0.2728433
  30 h     dx  0.0049085-0.0031056-0.0043674 0.0367912
           dy -0.0031056 0.0085938 0.0123572-0.0445977 0.1060418
           dz  0.0043674-0.0123572-0.0140238-0.0490071 0.1236049 0.2728433
 

   *** projected hessian written onto $hessian (projected), file=<hessian> ***

 dipole moment in principle axis system (a.u.) :
     0.0000000000    -0.0000000000    -0.0000000000
 norm :  3.574815058135536E-013

 rotational constants b for rotations around axis of inertia
 and optical intensities for (1 <-- 0) transition

   b   :     0.0127611167     0.0127611167     0.0064064260   (cm**(-1))
   b   :         382.5687         382.5687         192.0598     (MHz)
  int. :     0.0000000000     0.0000000000     0.0000000000     (a.u.)

   x   :     1.0000000000     0.0000000000     0.0000000000
   y   :     0.0000000000     1.0000000000     0.0000000000
   z   :     0.0000000000     0.0000000000     1.0000000000

   ***  normal modes written onto $vibrational normal modes, file=<vib_normal_modes>  ***

   ***  vibrational spectroscopic data written onto$vibrational spectrum   
        file=<vibspectrum>  ***

          ---------------------------------------------------
          NORMAL MODES and VIBRATIONAL FREQUENCIES (cm**(-1))
          ---------------------------------------------------

 imaginary wave numbers indicate a negative curvature of the energy surface.
 zero frequency modes have no physical meaning except being generators of
 translations and rotations. each vibrational normal mode - given in terms of
 cartesian displacement vectors of all atoms - has been normalized to unity.
 to obtain mass-weigthed normal coordinates in a.u. divide the tabulated
 modes by sqrt(reduced mass * 1822.88853).
 band intensities or cross sections refer to independent non-degenerate normal
 modes, that is, the intensities of degenerate modes have yet to be added.
 dDIP/dQ is the normal mode derivative of the dipole moment.

 WARNING: values of IR intensities are questionable for saddle point structures


       mode               1        2        3        4        5        6

     frequency        i601.68  i376.53  i376.53   i65.59   i65.59     0.00

     symmetry            a'       e'       e'       e'       e'           

        IR               NO       YES      YES      YES      YES       - 
|dDIP/dQ|   (a.u.)     0.0000   0.0000   0.0000   0.0000   0.0000   0.0000
intensity (km/mol)       0.00     0.00     0.00     0.00     0.00     0.00
intensity (  %   )       0.00     0.00     0.00     0.00     0.00     0.00
 
       RAMAN             YES      YES      YES      YES      YES       - 
 
  1   c           x   0.00728 -0.00751 -0.02534  0.00048 -0.03976  0.03255
                  y  -0.00811 -0.00452  0.00797 -0.04404 -0.01483  0.01116
                  z   0.00000  0.00000 -0.00000 -0.00000  0.00000  0.00475
  2   c           x  -0.01290 -0.02269 -0.03769 -0.01062 -0.03413  0.03687
                  y  -0.00132 -0.01818 -0.00160 -0.04420 -0.01050  0.01522
                  z  -0.00000 -0.00000 -0.00000 -0.00000  0.00000  0.04694
  3   c           x   0.00759  0.00397 -0.03358  0.00085 -0.05083  0.03386
                  y  -0.01051 -0.02230  0.02507 -0.02750  0.00098  0.00538
                  z  -0.00000 -0.00000  0.00000  0.00000  0.00000  0.04613
  4   c           x   0.00338  0.00115 -0.00953  0.00939 -0.04918  0.03953
                  y   0.01037 -0.02033  0.01664 -0.03462 -0.00592  0.00366
                  z   0.00000 -0.00000  0.00000  0.00000 -0.00000  0.13020
  5   c           x   0.00531 -0.01293 -0.01254  0.00958 -0.03254  0.04389
                  y   0.01183 -0.04333  0.00817 -0.04579  0.00971  0.00768
                  z  -0.00000  0.00000  0.00000  0.00000  0.00000  0.17295
  6   c           x  -0.01067 -0.01687 -0.00993  0.01309 -0.03675  0.04254
                  y  -0.00225 -0.01993 -0.00138 -0.04704 -0.00222  0.01345
                  z   0.00000 -0.00000  0.00000 -0.00000  0.00000  0.13106
  7   c           x   0.02955  0.00541 -0.03496  0.04404  0.00954  0.02960
                  y  -0.05629 -0.04483  0.06751  0.01146  0.06405  0.00101
                  z   0.00000 -0.00000  0.00000  0.00000  0.00000  0.00611
  8   c           x  -0.41188 -0.33049  0.49473  0.09693  0.14083  0.02404
                  y  -0.07900 -0.06064  0.09845  0.00710  0.06285  0.00136
                  z   0.00000  0.00000 -0.00000  0.00000 -0.00000 -0.07082
  9   n           x   0.19359  0.18485 -0.30600  0.12549 -0.09270  0.02206
                  y   0.06803  0.08196 -0.08364 -0.04920 -0.04578  0.01040
                  z   0.00000  0.00000  0.00000  0.00000  0.00000 -0.13462
 10   c           x  -0.11469 -0.09405 -0.04091  0.11824 -0.01845  0.02663
                  y   0.00475 -0.00312  0.00325 -0.06206 -0.01954  0.01255
                  z  -0.00000 -0.00000  0.00000  0.00000  0.00000 -0.08143
 11   c           x   0.23298  0.19496  0.16379 -0.34778 -0.01662  0.02955
                  y  -0.15346 -0.12281 -0.09755  0.20070 -0.02555  0.02341
                  z   0.00000 -0.00000 -0.00000 -0.00000 -0.00000 -0.08609
 12   c           x  -0.06352 -0.04501 -0.07393 -0.03786 -0.03583  0.03522
                  y   0.00255 -0.00585  0.01709  0.05682 -0.01785  0.02109
                  z   0.00000 -0.00000  0.00000 -0.00000 -0.00000  0.00045
 13   c           x   0.13752  0.08402  0.17868  0.03500 -0.02866  0.03831
                  y   0.39620  0.25541  0.51296  0.17658  0.00092  0.02572
                  z   0.00000 -0.00000 -0.00000 -0.00000 -0.00000  0.02347
 14   n           x  -0.03787 -0.05905 -0.05885  0.04687 -0.09459  0.04712
                  y  -0.20167 -0.16518 -0.32754 -0.04731 -0.12440  0.02292
                  z  -0.00000 -0.00000 -0.00000 -0.00000 -0.00000  0.15471
 15   c           x   0.06146 -0.04231  0.02675  0.06310 -0.09390  0.04670
                  y   0.09695 -0.07078  0.05499  0.01338 -0.07468  0.01789
                  z  -0.00000  0.00000 -0.00000 -0.00000  0.00000  0.16955
 16   c           x  -0.24939  0.24600 -0.09334 -0.16189  0.30803  0.05465
                  y  -0.12504  0.13432 -0.04651 -0.12395  0.16035  0.00993
                  z   0.00000 -0.00000 -0.00000 -0.00000 -0.00000  0.30996
 17   c           x   0.03397 -0.05355 -0.01078 -0.03619  0.05778  0.04980
                  y   0.05374 -0.06900  0.00855 -0.03679 -0.01619  0.00618
                  z   0.00000  0.00000  0.00000 -0.00000 -0.00000  0.25945
 18   c           x   0.01641 -0.00220 -0.00898  0.02632 -0.01529  0.03043
                  y   0.27850  0.04996 -0.29471  0.19936  0.34855 -0.00507
                  z  -0.00000  0.00000 -0.00000  0.00000 -0.00000  0.04215
 19   c           x   0.05323 -0.00959 -0.05188  0.02533 -0.00842  0.04129
[...]
                  z   0.00000 -0.00000  0.00000 -0.00000  0.00000 -0.00000
 13   c           x   0.00528  0.03094 -0.05285  0.24738  0.20104 -0.22270
                  y  -0.00169 -0.01288  0.02404 -0.14766 -0.11930  0.13223
                  z  -0.00000 -0.00000  0.00000 -0.00000 -0.00000 -0.00000
 14   n           x  -0.00483  0.03275  0.01111  0.01650  0.01198 -0.02216
                  y   0.00118 -0.00831 -0.00432 -0.00428 -0.00325  0.00432
                  z  -0.00000  0.00000  0.00000  0.00000  0.00000  0.00000
 15   c           x  -0.00201  0.00393  0.01668 -0.01413 -0.01527  0.01944
                  y  -0.00005  0.01142 -0.01150  0.00532 -0.00031  0.00489
                  z  -0.00000  0.00000 -0.00000 -0.00000  0.00000  0.00000
 16   c           x  -0.01739  0.00641  0.00930 -0.01547  0.00435 -0.01706
                  y   0.02591  0.00096 -0.00710  0.02143 -0.00825  0.02053
                  z  -0.00000  0.00000 -0.00000 -0.00000 -0.00000 -0.00000
 17   c           x  -0.00421 -0.00119  0.01361 -0.36660  0.14420 -0.26725
                  y   0.00690 -0.02815  0.10336 -0.30044  0.11434 -0.24455
                  z   0.00000 -0.00000 -0.00000 -0.00000 -0.00000 -0.00000
 18   c           x   0.07785  0.01054  0.00334 -0.00507  0.02743  0.02631
                  y   0.00456  0.00692 -0.00297 -0.00165  0.00215  0.00451
                  z  -0.00000 -0.00000 -0.00000 -0.00000  0.00000  0.00000
 19   c           x   0.00299  0.01189  0.01601 -0.01222  0.00642 -0.00548
                  y  -0.00334  0.01209 -0.00354 -0.01637  0.00161 -0.01928
                  z   0.00000 -0.00000 -0.00000 -0.00000 -0.00000  0.00000
 20   n           x   0.00092  0.01984 -0.01576  0.01361 -0.00595  0.01482
                  y   0.00063  0.01857 -0.01723  0.01365 -0.00615  0.01703
                  z  -0.00000  0.00000  0.00000  0.00000 -0.00000  0.00000
 21   c           x   0.00889 -0.02760 -0.04668  0.30231 -0.11594  0.22586
                  y   0.00600 -0.01905 -0.03450  0.16932 -0.06436  0.12674
                  z  -0.00000  0.00000 -0.00000  0.00000  0.00000  0.00000
 22   h           x   0.00391  0.00186 -0.06145  0.36247 -0.14142  0.27497
                  y   0.01283 -0.04917 -0.04079  0.28827 -0.10826  0.21169
                  z   0.00000 -0.00000  0.00000 -0.00000 -0.00000  0.00000
 23   h           x  -0.28239 -0.01231  0.07053  0.00324  0.01430  0.01312
                  y   0.01497  0.01375  0.02227  0.00584 -0.04146 -0.02886
                  z   0.20966  0.01575 -0.03929 -0.00576  0.00997  0.01000
 24   h           x  -0.28239 -0.01231  0.07053  0.00324  0.01430  0.01312
                  y   0.01497  0.01375  0.02227  0.00584 -0.04146 -0.02886
                  z  -0.20966 -0.01575  0.03929  0.00576 -0.00997 -0.01000
 25   h           x   0.00814  0.02574 -0.03539 -0.01425  0.07077  0.04584
                  y   0.01330 -0.07524 -0.01691  0.07608 -0.48498 -0.34398
                  z  -0.00000  0.00000  0.00000  0.00000 -0.00000  0.00000
 26   h           x   0.00562  0.03637 -0.06910  0.35787  0.29093 -0.32082
                  y   0.01673 -0.04153 -0.00628 -0.14407 -0.11285  0.13229
                  z   0.00000  0.00000 -0.00000  0.00000 -0.00000 -0.00000
 27   h           x  -0.23443  0.00481  0.02364  0.03556  0.02451 -0.03156
                  y  -0.39099  0.06065  0.03938 -0.00437 -0.00913  0.00306
                  z   0.32690 -0.02616 -0.03329  0.00576  0.00997 -0.01000
 28   h           x  -0.23443  0.00481  0.02364  0.03556  0.02451 -0.03156
                  y  -0.39099  0.06065  0.03938 -0.00437 -0.00913  0.00306
                  z  -0.32690  0.02616  0.03329 -0.00576 -0.00997  0.01000
 29   h           x   0.09316 -0.04436  0.03226  0.02824 -0.00859  0.01843
                  y  -0.14648  0.05202 -0.00979  0.02874 -0.01645  0.02580
                  z  -0.11724  0.04190 -0.00601 -0.01151  0.00000 -0.01000
 30   h           x   0.09316 -0.04436  0.03226  0.02824 -0.00859  0.01843
                  y  -0.14648  0.05202 -0.00979  0.02874 -0.01645  0.02580
                  z   0.11724 -0.04190  0.00601  0.01151 -0.00000  0.01000

reduced mass(g/mol)     1.385   11.634   11.634    7.880    7.880    7.966


       mode              79       80       81       82       83       84

     frequency        2012.68  2030.68  2030.68  3107.11  3107.14  3107.14

     symmetry            a'       e'       e'       a'       e'       e'  

        IR               NO       YES      YES      NO       YES      YES
|dDIP/dQ|   (a.u.)     0.0000   0.0067   0.0067   0.0000   0.0005   0.0005
intensity (km/mol)       0.00    79.32    79.32     0.00     0.43     0.43
intensity (  %   )       0.00    80.32    80.32     0.00     0.44     0.44
 
       RAMAN             YES      YES      YES      YES      YES      YES
 
  1   c           x  -0.02583 -0.01403  0.01466 -0.00008  0.00022 -0.00029
                  y  -0.06339 -0.07742 -0.02103 -0.00006 -0.00001  0.00003
                  z  -0.00000 -0.00000  0.00000 -0.00000  0.00000 -0.00000
  2   c           x   0.01284 -0.00642  0.00402 -0.00035 -0.00007  0.00059
                  y  -0.00975 -0.03267  0.01155 -0.00011  0.00004  0.00014
                  z  -0.00000  0.00000 -0.00000  0.00000  0.00000 -0.00000
  3   c           x   0.00202 -0.02616 -0.02128  0.00027 -0.00036  0.00020
                  y   0.01599 -0.00737 -0.00818 -0.00025  0.00042 -0.00015
                  z  -0.00000  0.00000 -0.00000  0.00000  0.00000 -0.00000
  4   c           x   0.06781 -0.02760 -0.06958  0.00009  0.00015  0.00003
                  y   0.00932  0.00682 -0.03461 -0.00004 -0.00033 -0.00004
                  z  -0.00000 -0.00000 -0.00000  0.00000 -0.00000  0.00000
  5   c           x  -0.01486  0.00562 -0.02572  0.00008  0.00011  0.00015
                  y  -0.00625 -0.00293  0.02359  0.00036  0.00048  0.00033
                  z   0.00000  0.00000 -0.00000  0.00000 -0.00000  0.00000
  6   c           x  -0.04198  0.05214 -0.03922 -0.00001 -0.00009 -0.00019
                  y   0.05406 -0.02354  0.04514  0.00010 -0.00011 -0.00028
                  z   0.00000  0.00000 -0.00000  0.00000 -0.00000  0.00000
  7   c           x   0.00506  0.00419 -0.00223  0.00175 -0.00220  0.00112
                  y  -0.01985 -0.02678 -0.00564  0.00005 -0.00016  0.00005
                  z   0.00000 -0.00000  0.00000  0.00000 -0.00000 -0.00000
  8   c           x   0.03380  0.02713  0.00054  0.00027 -0.00036  0.00019
                  y   0.02522  0.02398  0.00121  0.00014 -0.00017  0.00010
                  z   0.00000 -0.00000  0.00000  0.00000 -0.00000  0.00000
  9   n           x   0.12440  0.18191  0.03031  0.00013 -0.00007 -0.00004
                  y  -0.31607 -0.44142 -0.07337 -0.00010  0.00002  0.00010
                  z  -0.00000 -0.00000  0.00000 -0.00000 -0.00000  0.00000
 10   c           x  -0.13425 -0.19981 -0.03124 -0.00010 -0.00005  0.00024
                  y   0.43787  0.60814  0.10260  0.00015 -0.00008 -0.00006
                  z  -0.00000 -0.00000 -0.00000  0.00000 -0.00000  0.00000
 11   c           x  -0.01591 -0.01001 -0.00337  0.02116  0.00147 -0.02983
                  y   0.01553  0.00175  0.00701  0.02915  0.00208 -0.04125
                  z  -0.00000  0.00000  0.00000  0.00000 -0.00000  0.00000
 12   c           x  -0.01972  0.01591 -0.02001 -0.00083 -0.00003  0.00110
                  y   0.00555 -0.00899  0.00608 -0.00155 -0.00013  0.00222
                  z   0.00000  0.00000 -0.00000 -0.00000  0.00000 -0.00000
 13   c           x   0.00494 -0.00428  0.00585 -0.00001 -0.00001  0.00003
                  y  -0.04188  0.01868 -0.03019 -0.00030 -0.00001  0.00045
                  z  -0.00000 -0.00000 -0.00000 -0.00000  0.00000 -0.00000
 14   n           x  -0.33592  0.30477 -0.37049 -0.00015 -0.00012 -0.00001
                  y   0.05031 -0.04063  0.04948 -0.00006 -0.00001  0.00006
                  z   0.00000  0.00000 -0.00000 -0.00000  0.00000 -0.00000
 15   c           x   0.44633 -0.40376  0.49039  0.00018  0.00017  0.00005
                  y  -0.10267  0.08651 -0.10135  0.00001  0.00011  0.00016
                  z   0.00000  0.00000  0.00000 -0.00000  0.00000 -0.00000
 16   c           x   0.02140 -0.00998  0.00177  0.01466  0.01749  0.01133
                  y   0.00601 -0.00339  0.00704 -0.03290 -0.03908 -0.02523
                  z   0.00000  0.00000 -0.00000  0.00000  0.00000  0.00000
 17   c           x   0.01466 -0.00535 -0.02127 -0.00092 -0.00114 -0.00077
                  y   0.01431 -0.00774 -0.01518  0.00149  0.00174  0.00111
                  z   0.00000  0.00000 -0.00000  0.00000  0.00000 -0.00000
 18   c           x  -0.00550 -0.00554 -0.00083 -0.03583  0.04512 -0.02312
                  y  -0.02154 -0.00079  0.01148  0.00375 -0.00463  0.00240
                  z  -0.00000  0.00000  0.00000 -0.00000  0.00000 -0.00000
 19   c           x  -0.31208  0.14995  0.40620 -0.00008 -0.00010 -0.00004
                  y  -0.33520  0.17070  0.45236 -0.00016  0.00020 -0.00011
                  z  -0.00000 -0.00000 -0.00000 -0.00000  0.00000 -0.00000
 20   n           x   0.21153 -0.10375 -0.27649  0.00002 -0.00007  0.00002
                  y   0.26577 -0.13463 -0.35904  0.00017 -0.00004  0.00011
                  z  -0.00000 -0.00000  0.00000  0.00000 -0.00000  0.00000
 21   c           x  -0.03874  0.01602  0.03039 -0.00026 -0.00032 -0.00019
                  y   0.01666 -0.00587 -0.00989  0.00016  0.00021  0.00014
                  z   0.00000  0.00000  0.00000 -0.00000  0.00000 -0.00000
 22   h           x   0.00864 -0.00553 -0.00726 -0.00131 -0.00141 -0.00095
                  y  -0.01982  0.01087  0.02294 -0.00459 -0.00510 -0.00307
                  z   0.00000  0.00000 -0.00000  0.00000 -0.00000  0.00000
 23   h           x   0.00233 -0.00351 -0.00374  0.20124 -0.25328  0.12982
                  y   0.00310  0.00209  0.00046 -0.02382  0.02993 -0.01537
                  z  -0.00584 -0.00172  0.00298  0.35347 -0.44484  0.22802
 24   h           x   0.00233 -0.00351 -0.00374  0.20124 -0.25328  0.12982
                  y   0.00310  0.00209  0.00046 -0.02382  0.02993 -0.01537
                  z   0.00584  0.00172 -0.00298 -0.35347  0.44484 -0.22802
 25   h           x  -0.02149 -0.02644 -0.00120 -0.00332  0.00375 -0.00213
                  y   0.00243  0.00481  0.00204  0.00343 -0.00392  0.00209
                  z   0.00000  0.00000  0.00000 -0.00000  0.00000  0.00000
 26   h           x   0.01285 -0.01074  0.01387  0.00463  0.00015 -0.00600
                  y   0.01739 -0.01026  0.01774  0.00116 -0.00005 -0.00151
                  z  -0.00000 -0.00000  0.00000 -0.00000 -0.00000  0.00000
 27   h           x   0.00152 -0.00374  0.00195 -0.12125 -0.00854  0.17123
                  y  -0.00357 -0.00361  0.00022 -0.16237 -0.01148  0.22937
                  z   0.00584  0.00172  0.00298 -0.35347 -0.02495  0.49925
 28   h           x   0.00152 -0.00374  0.00195 -0.12125 -0.00854  0.17123
                  y  -0.00357 -0.00361  0.00022 -0.16237 -0.01148  0.22937
                  z  -0.00584 -0.00172 -0.00298  0.35347  0.02495 -0.49925
 29   h           x  -0.00385  0.00131 -0.00069 -0.07999 -0.09505 -0.06143
                  y   0.00047 -0.00096  0.00527  0.18619  0.22117  0.14287
                  z   0.00584 -0.00344 -0.00000 -0.35347 -0.41989 -0.27124
 30   h           x  -0.00385  0.00131 -0.00069 -0.07999 -0.09505 -0.06143
                  y   0.00047 -0.00096  0.00527  0.18619  0.22117  0.14287
                  z  -0.00584  0.00344  0.00000  0.35347  0.41989  0.27124

reduced mass(g/mol)    12.683   12.699   12.699    1.051    1.051    1.051


       mode              85       86       87       88       89       90

     frequency        3207.80  3207.80  3207.85  3324.75  3324.75  3324.88

     symmetry            e"       e"       a"       e'       e'       a'  

        IR               NO       NO       YES      YES      YES      NO 
|dDIP/dQ|   (a.u.)     0.0000   0.0000   0.0011   0.0072   0.0072   0.0000
intensity (km/mol)       0.00     0.00     2.27    92.44    92.44     0.00
intensity (  %   )       0.00     0.00     2.30    93.61    93.61     0.00
 
       RAMAN             YES      YES      NO       YES      YES      YES
 
  1   c           x  -0.00000 -0.00000  0.00000  0.00010  0.00047  0.00002
                  y  -0.00000 -0.00000  0.00000 -0.00009  0.00001 -0.00017
                  z  -0.00003  0.00004 -0.00005 -0.00000 -0.00000 -0.00000
  2   c           x  -0.00000  0.00000 -0.00000 -0.00043 -0.00056 -0.00053
                  y  -0.00000 -0.00000 -0.00000 -0.00030 -0.00011 -0.00011
                  z   0.00003  0.00033 -0.00024  0.00000  0.00000 -0.00000
  3   c           x  -0.00000 -0.00000 -0.00000  0.00008 -0.00060  0.00036
                  y  -0.00000  0.00000 -0.00000 -0.00026  0.00041 -0.00041
                  z  -0.00030 -0.00014 -0.00024 -0.00000  0.00000 -0.00000
  4   c           x   0.00000 -0.00000  0.00000 -0.00023  0.00010  0.00014
                  y   0.00000  0.00000  0.00000  0.00028 -0.00031  0.00011
                  z  -0.00002 -0.00005 -0.00005  0.00000 -0.00000  0.00000
  5   c           x   0.00000  0.00000 -0.00000 -0.00014 -0.00013  0.00017
                  y  -0.00000 -0.00000  0.00000 -0.00073  0.00019  0.00052
                  z   0.00027 -0.00019 -0.00024  0.00000  0.00000 -0.00000
  6   c           x   0.00000  0.00000  0.00000  0.00026 -0.00000 -0.00016
                  y   0.00000  0.00000  0.00000  0.00038  0.00017  0.00006
                  z   0.00005  0.00001 -0.00005  0.00000 -0.00000  0.00000
  7   c           x   0.00000  0.00000 -0.00000 -0.00054  0.00173 -0.00129
                  y   0.00000  0.00000  0.00000 -0.00315  0.01050 -0.00769
                  z   0.00002  0.00002  0.00002 -0.00000 -0.00000 -0.00000
  8   c           x  -0.00000 -0.00000 -0.00000 -0.00891  0.02944 -0.02165
                  y  -0.00000 -0.00000  0.00000  0.02083 -0.06876  0.05080
                  z   0.00053  0.00031  0.00045 -0.00000 -0.00000 -0.00000
  9   n           x  -0.00000 -0.00000 -0.00000  0.00003 -0.00017  0.00006
                  y   0.00000  0.00000 -0.00000  0.00002  0.00004  0.00007
                  z  -0.00000 -0.00002 -0.00002 -0.00000 -0.00000 -0.00000
 10   c           x   0.00000  0.00000 -0.00000  0.00013 -0.00007  0.00025
                  y   0.00000  0.00000 -0.00000 -0.00006  0.00010 -0.00016
                  z  -0.00004 -0.00020  0.00013  0.00000  0.00000  0.00000
 11   c           x   0.00000  0.00000 -0.00000 -0.00006 -0.00007 -0.00011
                  y   0.00000  0.00000  0.00000  0.00050  0.00055  0.00062
                  z   0.00189  0.08266 -0.05846  0.00000 -0.00000  0.00000
 12   c           x   0.00000  0.00000  0.00000 -0.00590 -0.00625 -0.00602
                  y  -0.00000 -0.00000  0.00000  0.00483  0.00514  0.00496
                  z   0.00001 -0.00003  0.00002 -0.00000 -0.00000  0.00000
 13   c           x  -0.00000 -0.00000  0.00000  0.05307  0.05661  0.05482
                  y  -0.00000 -0.00000  0.00000 -0.00635 -0.00678 -0.00665
                  z   0.00000 -0.00061  0.00045 -0.00000  0.00000 -0.00000
 14   n           x   0.00000 -0.00000  0.00000 -0.00010 -0.00006  0.00003
                  y  -0.00000  0.00000 -0.00000 -0.00009 -0.00010 -0.00009
                  z  -0.00001  0.00001 -0.00002  0.00000  0.00000  0.00000
 15   c           x  -0.00000  0.00000 -0.00000 -0.00005 -0.00016 -0.00026
                  y   0.00000 -0.00000  0.00000  0.00003 -0.00008 -0.00013
                  z  -0.00016  0.00013  0.00013 -0.00000  0.00000  0.00000
 16   c           x  -0.00000  0.00000  0.00000 -0.00067  0.00015  0.00059
                  y   0.00000 -0.00000 -0.00000  0.00028 -0.00006 -0.00021
                  z   0.07064 -0.04297 -0.05846  0.00000 -0.00000 -0.00000
 17   c           x  -0.00000  0.00000 -0.00000 -0.01013  0.00238  0.00731
                  y  -0.00000  0.00000 -0.00000 -0.00380  0.00091  0.00273
                  z  -0.00003  0.00000  0.00002 -0.00000 -0.00000  0.00000
 18   c           x   0.00000  0.00000  0.00000 -0.00018  0.00057 -0.00048
                  y  -0.00000 -0.00000 -0.00000 -0.00013  0.00043 -0.00041
                  z  -0.07253 -0.03969 -0.05846  0.00000 -0.00000 -0.00000
 19   c           x   0.00000 -0.00000  0.00000 -0.00004  0.00004  0.00002
                  y   0.00000 -0.00000  0.00000 -0.00017 -0.00007  0.00029
                  z   0.00019  0.00007  0.00013 -0.00000  0.00000 -0.00000
 20   n           x  -0.00000  0.00000 -0.00000  0.00006  0.00000 -0.00009
                  y  -0.00000 -0.00000 -0.00000 -0.00016  0.00007  0.00002
                  z   0.00002  0.00000 -0.00002  0.00000  0.00000  0.00000
 21   c           x  -0.00000 -0.00000  0.00000  0.04562 -0.01066 -0.03317
                  y  -0.00000  0.00000  0.00000  0.06092 -0.01424 -0.04415
                  z  -0.00053  0.00031  0.00045 -0.00000 -0.00000  0.00000
 22   h           x   0.00000 -0.00000 -0.00000 -0.41885  0.09777  0.30419
                  y   0.00000 -0.00000 -0.00000 -0.67145  0.15672  0.48751
                  z   0.00112 -0.00074 -0.00105  0.00000  0.00000  0.00000
 23   h           x   0.25937  0.14193  0.20908  0.00075 -0.00230  0.00183
                  y  -0.03439 -0.01881 -0.02776  0.00028 -0.00107  0.00080
                  z   0.43062  0.23564  0.34709  0.00101 -0.00308  0.00250
 24   h           x  -0.25937 -0.14193 -0.20908  0.00075 -0.00230  0.00183
                  y   0.03439  0.01881  0.02776  0.00028 -0.00107  0.00080
                  z   0.43062  0.23564  0.34709 -0.00101  0.00308 -0.00250
 25   h           x  -0.00000 -0.00000  0.00000  0.11083 -0.36564  0.27011
                  y  -0.00000  0.00000 -0.00000 -0.20804  0.68640 -0.50719
                  z  -0.00120 -0.00060 -0.00105  0.00000  0.00000  0.00000
 26   h           x  -0.00000  0.00000 -0.00000 -0.55533 -0.59265 -0.57429
                  y   0.00000  0.00000  0.00000  0.01897  0.02023  0.01968
                  z   0.00008  0.00134 -0.00105  0.00000  0.00000 -0.00000
 27   h           x  -0.00417 -0.18174  0.12858 -0.00013 -0.00023 -0.00022
                  y  -0.00541 -0.23639  0.16719 -0.00179 -0.00195 -0.00198
                  z  -0.01124 -0.49075  0.34709 -0.00217 -0.00241 -0.00250
 28   h           x   0.00417  0.18174 -0.12858 -0.00013 -0.00023 -0.00022
                  y   0.00541  0.23639 -0.16719 -0.00179 -0.00195 -0.00198
                  z  -0.01124 -0.49075  0.34709  0.00217  0.00241  0.00250
 29   h           x  -0.09730  0.05918  0.08050  0.00211 -0.00050 -0.00160
                  y   0.23550 -0.14326 -0.19495 -0.00152  0.00029  0.00118
                  z  -0.41938  0.25511  0.34709  0.00317 -0.00067 -0.00250
 30   h           x   0.09730 -0.05918 -0.08050  0.00211 -0.00050 -0.00160
                  y  -0.23550  0.14326  0.19495 -0.00152  0.00029  0.00118
                  z  -0.41938  0.25511  0.34709 -0.00317  0.00067  0.00250

reduced mass(g/mol)     1.121    1.121    1.121    1.111    1.111    1.111
 

         **************************************************************
         *                                                            *
         *  zero point VIBRATIONAL energy  :      0.1931307  Hartree  *
         *    SCF-energy                   :   -854.6159816           *
         *    SCF + E(vib0)                :   -854.4228509           *
         *                                                            *
         **************************************************************




 time elapsed for vibrational analysis     1.19 sec


    ------------------------------------------------------------------------
         total  cpu-time : 41 minutes and 42 seconds
         total wall-time :  5 minutes and 21 seconds
    ------------------------------------------------------------------------

   ****  force : all done  ****


    2018-03-23 00:08:38.741 

