[Molden Format]
[Title]
                                                                                
[Atoms] AU
 c     1    6 -.77897597213719E+00 -.25371386126401E+01 0.00000000000000E+00
 c     2    6 -.25976286755993E+01 -.59737791435766E+00 0.00000000000000E+00
 c     3    6 0.18161587872931E+01 -.19509234654892E+01 0.00000000000000E+00
 c     4    6 0.25867144775373E+01 0.59395632551151E+00 0.00000000000000E+00
 c     5    6 0.78146988830619E+00 0.25483013798468E+01 0.00000000000000E+00
 c     6    6 -.18077385054001E+01 0.19431822871285E+01 0.00000000000000E+00
 c     7    6 0.37772367610762E+01 -.38620178266612E+01 0.00000000000000E+00
 c     8    6 0.36170385420992E+01 -.63543530547807E+01 0.00000000000000E+00
 n     9    7 -.43799859451107E+00 -.72422753895641E+01 0.00000000000000E+00
 c    10    6 -.14027330311253E+01 -.51956870611272E+01 0.00000000000000E+00
 c    11    6 -.62740512731234E+01 -.38853938825810E+01 0.00000000000000E+00
 c    12    6 -.52332239282951E+01 -.13401740778698E+01 0.00000000000000E+00
 c    13    6 -.73115504411050E+01 0.44729263465020E-01 0.00000000000000E+00
 n    14    7 -.60529951713098E+01 0.40004556044507E+01 0.00000000000000E+00
 c    15    6 -.37982304694876E+01 0.38126459702456E+01 0.00000000000000E+00
 c    16    6 -.22782416946206E+00 0.73761847284615E+01 0.00000000000000E+00
 c    17    6 0.14559871672188E+01 0.52021919045310E+01 0.00000000000000E+00
 c    18    6 0.65018754425855E+01 -.34907908458805E+01 0.00000000000000E+00
 c    19    6 0.52009635006128E+01 0.13830410908816E+01 0.00000000000000E+00
 n    20    7 0.64909937658209E+01 0.32418197851136E+01 0.00000000000000E+00
 c    21    6 0.36945118990058E+01 0.63096237913157E+01 0.00000000000000E+00
 h    22    1 0.47429591847694E+01 0.80737406635705E+01 0.00000000000000E+00
 h    23    1 0.75696264272523E+01 -.36209545206407E+01 0.17746942092638E+01
 h    24    1 0.75696264272523E+01 -.36209545206407E+01 -.17746942092638E+01
 h    25    1 0.46205849258348E+01 -.81443934749084E+01 0.00000000000000E+00
 h    26    1 -.93635441106042E+01 0.70652811337870E-01 0.00000000000000E+00
 h    27    1 -.69206518144490E+01 -.47450115228382E+01 -.17746942092638E+01
 h    28    1 -.69206518144490E+01 -.47450115228382E+01 0.17746942092638E+01
 h    29    1 -.64897461280323E+00 0.83659660434789E+01 -.17746942092638E+01
 h    30    1 -.64897461280323E+00 0.83659660434789E+01 0.17746942092638E+01
[GTO]
    1 0
 s    5 1.00
 0.12384016938000E+04 0.55173650481097E-02
 0.18629004992000E+03 0.41088828555946E-01
 0.42251176346000E+02 0.18225382126490E+00
 0.11676557932000E+02 0.46828459437429E+00
 0.35930506482000E+01 0.44575817336002E+00
 s    1 1.00
 0.40245147363000E+00 0.10000000000000E+01
 s    1 1.00
 0.13090182668000E+00 0.10000000000000E+01
 p    3 1.00
 0.94680970621000E+01 0.56888332011037E-01
 0.20103545142000E+01 0.31294059336471E+00
 0.54771004707000E+00 0.76065016509135E+00
 p    1 1.00
 0.15268613795000E+00 0.10000000000000E+01
 d    1 1.00
 0.80000000000000E+00 0.10000000000000E+01
 
    2 0
 s    5 1.00
 0.12384016938000E+04 0.55173650481097E-02
 0.18629004992000E+03 0.41088828555946E-01
 0.42251176346000E+02 0.18225382126490E+00
 0.11676557932000E+02 0.46828459437429E+00
 0.35930506482000E+01 0.44575817336002E+00
 s    1 1.00
 0.40245147363000E+00 0.10000000000000E+01
 s    1 1.00
 0.13090182668000E+00 0.10000000000000E+01
 p    3 1.00
 0.94680970621000E+01 0.56888332011037E-01
 0.20103545142000E+01 0.31294059336471E+00
 0.54771004707000E+00 0.76065016509135E+00
 p    1 1.00
 0.15268613795000E+00 0.10000000000000E+01
 d    1 1.00
 0.80000000000000E+00 0.10000000000000E+01
 
    3 0
 s    5 1.00
 0.12384016938000E+04 0.55173650481097E-02
 0.18629004992000E+03 0.41088828555946E-01
 0.42251176346000E+02 0.18225382126490E+00
 0.11676557932000E+02 0.46828459437429E+00
 0.35930506482000E+01 0.44575817336002E+00
 s    1 1.00
 0.40245147363000E+00 0.10000000000000E+01
 s    1 1.00
 0.13090182668000E+00 0.10000000000000E+01
 p    3 1.00
 0.94680970621000E+01 0.56888332011037E-01
 0.20103545142000E+01 0.31294059336471E+00
 0.54771004707000E+00 0.76065016509135E+00
 p    1 1.00
 0.15268613795000E+00 0.10000000000000E+01
 d    1 1.00
 0.80000000000000E+00 0.10000000000000E+01
 
    4 0
 s    5 1.00
 0.12384016938000E+04 0.55173650481097E-02
 0.18629004992000E+03 0.41088828555946E-01
 0.42251176346000E+02 0.18225382126490E+00
 0.11676557932000E+02 0.46828459437429E+00
 0.35930506482000E+01 0.44575817336002E+00
 s    1 1.00
 0.40245147363000E+00 0.10000000000000E+01
 s    1 1.00
 0.13090182668000E+00 0.10000000000000E+01
 p    3 1.00
 0.94680970621000E+01 0.56888332011037E-01
 0.20103545142000E+01 0.31294059336471E+00
 0.54771004707000E+00 0.76065016509135E+00
 p    1 1.00
 0.15268613795000E+00 0.10000000000000E+01
 d    1 1.00
 0.80000000000000E+00 0.10000000000000E+01
 
    5 0
 s    5 1.00
 0.12384016938000E+04 0.55173650481097E-02
 0.18629004992000E+03 0.41088828555946E-01
 0.42251176346000E+02 0.18225382126490E+00
 0.11676557932000E+02 0.46828459437429E+00
 0.35930506482000E+01 0.44575817336002E+00
 s    1 1.00
 0.40245147363000E+00 0.10000000000000E+01
 s    1 1.00
 0.13090182668000E+00 0.10000000000000E+01
 p    3 1.00
 0.94680970621000E+01 0.56888332011037E-01
 0.20103545142000E+01 0.31294059336471E+00
 0.54771004707000E+00 0.76065016509135E+00
 p    1 1.00
 0.15268613795000E+00 0.10000000000000E+01
 d    1 1.00
 0.80000000000000E+00 0.10000000000000E+01
 
    6 0
 s    5 1.00
 0.12384016938000E+04 0.55173650481097E-02
 0.18629004992000E+03 0.41088828555946E-01
 0.42251176346000E+02 0.18225382126490E+00
 0.11676557932000E+02 0.46828459437429E+00
 0.35930506482000E+01 0.44575817336002E+00
 s    1 1.00
 0.40245147363000E+00 0.10000000000000E+01
 s    1 1.00
 0.13090182668000E+00 0.10000000000000E+01
 p    3 1.00
 0.94680970621000E+01 0.56888332011037E-01
 0.20103545142000E+01 0.31294059336471E+00
 0.54771004707000E+00 0.76065016509135E+00
 p    1 1.00
 0.15268613795000E+00 0.10000000000000E+01
 d    1 1.00
 0.80000000000000E+00 0.10000000000000E+01
 
    7 0
 s    5 1.00
 0.12384016938000E+04 0.55173650481097E-02
 0.18629004992000E+03 0.41088828555946E-01
 0.42251176346000E+02 0.18225382126490E+00
 0.11676557932000E+02 0.46828459437429E+00
 0.35930506482000E+01 0.44575817336002E+00
 s    1 1.00
 0.40245147363000E+00 0.10000000000000E+01
 s    1 1.00
 0.13090182668000E+00 0.10000000000000E+01
 p    3 1.00
 0.94680970621000E+01 0.56888332011037E-01
 0.20103545142000E+01 0.31294059336471E+00
 0.54771004707000E+00 0.76065016509135E+00
 p    1 1.00
 0.15268613795000E+00 0.10000000000000E+01
 d    1 1.00
 0.80000000000000E+00 0.10000000000000E+01
 
    8 0
 s    5 1.00
 0.12384016938000E+04 0.55173650481097E-02
 0.18629004992000E+03 0.41088828555946E-01
 0.42251176346000E+02 0.18225382126490E+00
 0.11676557932000E+02 0.46828459437429E+00
 0.35930506482000E+01 0.44575817336002E+00
 s    1 1.00
 0.40245147363000E+00 0.10000000000000E+01
 s    1 1.00
 0.13090182668000E+00 0.10000000000000E+01
 p    3 1.00
 0.94680970621000E+01 0.56888332011037E-01
 0.20103545142000E+01 0.31294059336471E+00
 0.54771004707000E+00 0.76065016509135E+00
 p    1 1.00
 0.15268613795000E+00 0.10000000000000E+01
 d    1 1.00
 0.80000000000000E+00 0.10000000000000E+01
 
    9 0
 s    5 1.00
 0.17128415853000E+04 -.54477995804909E-02
 0.25764812677000E+03 -.40627174632423E-01
 0.58458245853000E+02 -.18111962250584E+00
 0.16198367905000E+02 -.46843975563173E+00
 0.50052600809000E+01 -.44616846289231E+00
 s    1 1.00
 0.58731856571000E+00 0.10000000000000E+01
 s    1 1.00
 0.18764592253000E+00 0.10000000000000E+01
 p    3 1.00
 0.13571470233000E+02 -.58848116969522E-01
 0.29257372874000E+01 -.32024624762471E+00
 0.79927750754000E+00 -.75328226520436E+00
 p    1 1.00
 0.21954348034000E+00 0.10000000000000E+01
 d    1 1.00
 0.10000000000000E+01 0.10000000000000E+01
 
   10 0
 s    5 1.00
 0.12384016938000E+04 0.55173650481097E-02
 0.18629004992000E+03 0.41088828555946E-01
 0.42251176346000E+02 0.18225382126490E+00
 0.11676557932000E+02 0.46828459437429E+00
 0.35930506482000E+01 0.44575817336002E+00
 s    1 1.00
 0.40245147363000E+00 0.10000000000000E+01
 s    1 1.00
 0.13090182668000E+00 0.10000000000000E+01
 p    3 1.00
 0.94680970621000E+01 0.56888332011037E-01
 0.20103545142000E+01 0.31294059336471E+00
 0.54771004707000E+00 0.76065016509135E+00
 p    1 1.00
 0.15268613795000E+00 0.10000000000000E+01
 d    1 1.00
 0.80000000000000E+00 0.10000000000000E+01
 
   11 0
 s    5 1.00
 0.12384016938000E+04 0.55173650481097E-02
 0.18629004992000E+03 0.41088828555946E-01
 0.42251176346000E+02 0.18225382126490E+00
 0.11676557932000E+02 0.46828459437429E+00
 0.35930506482000E+01 0.44575817336002E+00
 s    1 1.00
 0.40245147363000E+00 0.10000000000000E+01
 s    1 1.00
 0.13090182668000E+00 0.10000000000000E+01
 p    3 1.00
 0.94680970621000E+01 0.56888332011037E-01
 0.20103545142000E+01 0.31294059336471E+00
 0.54771004707000E+00 0.76065016509135E+00
 p    1 1.00
 0.15268613795000E+00 0.10000000000000E+01
 d    1 1.00
 0.80000000000000E+00 0.10000000000000E+01
 
   12 0
 s    5 1.00
 0.12384016938000E+04 0.55173650481097E-02
 0.18629004992000E+03 0.41088828555946E-01
 0.42251176346000E+02 0.18225382126490E+00
 0.11676557932000E+02 0.46828459437429E+00
 0.35930506482000E+01 0.44575817336002E+00
 s    1 1.00
 0.40245147363000E+00 0.10000000000000E+01
 s    1 1.00
 0.13090182668000E+00 0.10000000000000E+01
 p    3 1.00
 0.94680970621000E+01 0.56888332011037E-01
 0.20103545142000E+01 0.31294059336471E+00
 0.54771004707000E+00 0.76065016509135E+00
 p    1 1.00
 0.15268613795000E+00 0.10000000000000E+01
 d    1 1.00
 0.80000000000000E+00 0.10000000000000E+01
 
   13 0
 s    5 1.00
 0.12384016938000E+04 0.55173650481097E-02
 0.18629004992000E+03 0.41088828555946E-01
 0.42251176346000E+02 0.18225382126490E+00
 0.11676557932000E+02 0.46828459437429E+00
 0.35930506482000E+01 0.44575817336002E+00
 s    1 1.00
 0.40245147363000E+00 0.10000000000000E+01
 s    1 1.00
 0.13090182668000E+00 0.10000000000000E+01
 p    3 1.00
 0.94680970621000E+01 0.56888332011037E-01
 0.20103545142000E+01 0.31294059336471E+00
 0.54771004707000E+00 0.76065016509135E+00
 p    1 1.00
 0.15268613795000E+00 0.10000000000000E+01
 d    1 1.00
 0.80000000000000E+00 0.10000000000000E+01
 
   14 0
 s    5 1.00
 0.17128415853000E+04 -.54477995804909E-02
 0.25764812677000E+03 -.40627174632423E-01
 0.58458245853000E+02 -.18111962250584E+00
 0.16198367905000E+02 -.46843975563173E+00
 0.50052600809000E+01 -.44616846289231E+00
 s    1 1.00
 0.58731856571000E+00 0.10000000000000E+01
 s    1 1.00
 0.18764592253000E+00 0.10000000000000E+01
 p    3 1.00
 0.13571470233000E+02 -.58848116969522E-01
 0.29257372874000E+01 -.32024624762471E+00
 0.79927750754000E+00 -.75328226520436E+00
 p    1 1.00
 0.21954348034000E+00 0.10000000000000E+01
 d    1 1.00
 0.10000000000000E+01 0.10000000000000E+01
 
   15 0
 s    5 1.00
 0.12384016938000E+04 0.55173650481097E-02
 0.18629004992000E+03 0.41088828555946E-01
 0.42251176346000E+02 0.18225382126490E+00
 0.11676557932000E+02 0.46828459437429E+00
 0.35930506482000E+01 0.44575817336002E+00
 s    1 1.00
 0.40245147363000E+00 0.10000000000000E+01
 s    1 1.00
 0.13090182668000E+00 0.10000000000000E+01
 p    3 1.00
 0.94680970621000E+01 0.56888332011037E-01
 0.20103545142000E+01 0.31294059336471E+00
 0.54771004707000E+00 0.76065016509135E+00
 p    1 1.00
 0.15268613795000E+00 0.10000000000000E+01
 d    1 1.00
 0.80000000000000E+00 0.10000000000000E+01
 
   16 0
 s    5 1.00
 0.12384016938000E+04 0.55173650481097E-02
 0.18629004992000E+03 0.41088828555946E-01
 0.42251176346000E+02 0.18225382126490E+00
 0.11676557932000E+02 0.46828459437429E+00
 0.35930506482000E+01 0.44575817336002E+00
 s    1 1.00
 0.40245147363000E+00 0.10000000000000E+01
 s    1 1.00
 0.13090182668000E+00 0.10000000000000E+01
 p    3 1.00
 0.94680970621000E+01 0.56888332011037E-01
 0.20103545142000E+01 0.31294059336471E+00
 0.54771004707000E+00 0.76065016509135E+00
 p    1 1.00
 0.15268613795000E+00 0.10000000000000E+01
 d    1 1.00
 0.80000000000000E+00 0.10000000000000E+01
 
   17 0
 s    5 1.00
 0.12384016938000E+04 0.55173650481097E-02
 0.18629004992000E+03 0.41088828555946E-01
 0.42251176346000E+02 0.18225382126490E+00
 0.11676557932000E+02 0.46828459437429E+00
 0.35930506482000E+01 0.44575817336002E+00
 s    1 1.00
 0.40245147363000E+00 0.10000000000000E+01
 s    1 1.00
 0.13090182668000E+00 0.10000000000000E+01
 p    3 1.00
 0.94680970621000E+01 0.56888332011037E-01
 0.20103545142000E+01 0.31294059336471E+00
 0.54771004707000E+00 0.76065016509135E+00
 p    1 1.00
 0.15268613795000E+00 0.10000000000000E+01
 d    1 1.00
 0.80000000000000E+00 0.10000000000000E+01
 
   18 0
 s    5 1.00
 0.12384016938000E+04 0.55173650481097E-02
 0.18629004992000E+03 0.41088828555946E-01
 0.42251176346000E+02 0.18225382126490E+00
 0.11676557932000E+02 0.46828459437429E+00
 0.35930506482000E+01 0.44575817336002E+00
 s    1 1.00
 0.40245147363000E+00 0.10000000000000E+01
 s    1 1.00
 0.13090182668000E+00 0.10000000000000E+01
 p    3 1.00
 0.94680970621000E+01 0.56888332011037E-01
 0.20103545142000E+01 0.31294059336471E+00
 0.54771004707000E+00 0.76065016509135E+00
 p    1 1.00
 0.15268613795000E+00 0.10000000000000E+01
 d    1 1.00
 0.80000000000000E+00 0.10000000000000E+01
 
   19 0
 s    5 1.00
 0.12384016938000E+04 0.55173650481097E-02
 0.18629004992000E+03 0.41088828555946E-01
 0.42251176346000E+02 0.18225382126490E+00
 0.11676557932000E+02 0.46828459437429E+00
 0.35930506482000E+01 0.44575817336002E+00
 s    1 1.00
 0.40245147363000E+00 0.10000000000000E+01
 s    1 1.00
 0.13090182668000E+00 0.10000000000000E+01
 p    3 1.00
 0.94680970621000E+01 0.56888332011037E-01
 0.20103545142000E+01 0.31294059336471E+00
 0.54771004707000E+00 0.76065016509135E+00
 p    1 1.00
 0.15268613795000E+00 0.10000000000000E+01
 d    1 1.00
 0.80000000000000E+00 0.10000000000000E+01
 
   20 0
 s    5 1.00
 0.17128415853000E+04 -.54477995804909E-02
 0.25764812677000E+03 -.40627174632423E-01
 0.58458245853000E+02 -.18111962250584E+00
 0.16198367905000E+02 -.46843975563173E+00
 0.50052600809000E+01 -.44616846289231E+00
 s    1 1.00
 0.58731856571000E+00 0.10000000000000E+01
 s    1 1.00
 0.18764592253000E+00 0.10000000000000E+01
 p    3 1.00
 0.13571470233000E+02 -.58848116969522E-01
 0.29257372874000E+01 -.32024624762471E+00
 0.79927750754000E+00 -.75328226520436E+00
 p    1 1.00
 0.21954348034000E+00 0.10000000000000E+01
 d    1 1.00
 0.10000000000000E+01 0.10000000000000E+01
 
   21 0
 s    5 1.00
 0.12384016938000E+04 0.55173650481097E-02
 0.18629004992000E+03 0.41088828555946E-01
 0.42251176346000E+02 0.18225382126490E+00
 0.11676557932000E+02 0.46828459437429E+00
 0.35930506482000E+01 0.44575817336002E+00
 s    1 1.00
 0.40245147363000E+00 0.10000000000000E+01
 s    1 1.00
 0.13090182668000E+00 0.10000000000000E+01
 p    3 1.00
 0.94680970621000E+01 0.56888332011037E-01
 0.20103545142000E+01 0.31294059336471E+00
 0.54771004707000E+00 0.76065016509135E+00
 p    1 1.00
 0.15268613795000E+00 0.10000000000000E+01
 d    1 1.00
 0.80000000000000E+00 0.10000000000000E+01
 
   22 0
 s    3 1.00
 0.13010701000000E+02 0.33485484812989E-01
 0.19622572000000E+01 0.23472187088125E+00
 0.44453796000000E+00 0.81377028525955E+00
 s    1 1.00
 0.12194962000000E+00 0.10000000000000E+01
 
   23 0
 s    3 1.00
 0.13010701000000E+02 0.33485484812989E-01
 0.19622572000000E+01 0.23472187088125E+00
 0.44453796000000E+00 0.81377028525955E+00
 s    1 1.00
 0.12194962000000E+00 0.10000000000000E+01
 
   24 0
 s    3 1.00
 0.13010701000000E+02 0.33485484812989E-01
 0.19622572000000E+01 0.23472187088125E+00
 0.44453796000000E+00 0.81377028525955E+00
 s    1 1.00
 0.12194962000000E+00 0.10000000000000E+01
 
   25 0
 s    3 1.00
 0.13010701000000E+02 0.33485484812989E-01
 0.19622572000000E+01 0.23472187088125E+00
 0.44453796000000E+00 0.81377028525955E+00
 s    1 1.00
 0.12194962000000E+00 0.10000000000000E+01
 
   26 0
 s    3 1.00
 0.13010701000000E+02 0.33485484812989E-01
 0.19622572000000E+01 0.23472187088125E+00
 0.44453796000000E+00 0.81377028525955E+00
 s    1 1.00
 0.12194962000000E+00 0.10000000000000E+01
 
   27 0
 s    3 1.00
 0.13010701000000E+02 0.33485484812989E-01
 0.19622572000000E+01 0.23472187088125E+00
 0.44453796000000E+00 0.81377028525955E+00
 s    1 1.00
 0.12194962000000E+00 0.10000000000000E+01
 
   28 0
 s    3 1.00
 0.13010701000000E+02 0.33485484812989E-01
 0.19622572000000E+01 0.23472187088125E+00
 0.44453796000000E+00 0.81377028525955E+00
 s    1 1.00
 0.12194962000000E+00 0.10000000000000E+01
 
   29 0
 s    3 1.00
 0.13010701000000E+02 0.33485484812989E-01
 0.19622572000000E+01 0.23472187088125E+00
 0.44453796000000E+00 0.81377028525955E+00
 s    1 1.00
 0.12194962000000E+00 0.10000000000000E+01
 
   30 0
 s    3 1.00
 0.13010701000000E+02 0.33485484812989E-01
 0.19622572000000E+01 0.23472187088125E+00
 0.44453796000000E+00 0.81377028525955E+00
 s    1 1.00
 0.12194962000000E+00 0.10000000000000E+01
 
[MO]
 Sym=     1a'  
 Ene= -.14132947246112E+02
 Spin= Alpha
 Occup= 2.000000
     1 0.52755736190225E-04
     2 -.10127428492983E-02
     3 0.14293582992031E-01
     4 -.14809909727866E-03
     5 0.10070686110550E-03
     6 0.00000000000000E+00
     7 0.21782645842830E-01
     8 0.57011437561314E-02
     9 0.00000000000000E+00
    10 0.19477120796235E-04
    11 0.86622091236068E-05
    12 -.28139329919841E-04
    13 -.81217916737613E-04
    14 0.00000000000000E+00
    15 0.00000000000000E+00
    16 0.10985753363100E-04
    17 0.13426364233313E-03
    18 -.15669046698660E-01
    19 0.15228587567532E-03
    20 0.30484227572678E-05
    21 0.00000000000000E+00
    22 -.72702596443028E-02
    23 -.19195166040043E-01
    24 0.00000000000000E+00
    25 -.12479300438952E-04
    26 -.30113700345051E-04
    27 0.42593000784003E-04
    28 -.10860677773408E-04
    29 0.00000000000000E+00
    30 0.00000000000000E+00
    31 0.10985753363100E-04
    32 0.13426364233313E-03
    33 -.15669046698660E-01
    34 -.78782949386931E-04
    35 0.13035922559376E-03
    36 0.00000000000000E+00
    37 0.20258631242689E-01
    38 0.33013534759464E-02
    39 0.00000000000000E+00
    40 -.33850608698582E-04
    41 -.87423920854212E-05
    42 0.42593000784003E-04
    43 -.33868610663456E-05
    44 0.00000000000000E+00
    45 0.00000000000000E+00
    46 0.52755736190225E-04
    47 -.10127428492983E-02
    48 0.14293582992031E-01
    49 -.13165151413424E-04
    50 -.17861101107362E-03
    51 0.00000000000000E+00
    52 -.15828658244852E-01
    53 0.16013752783465E-01
    54 0.00000000000000E+00
    55 -.49547500511446E-04
    56 0.77686830431288E-04
    57 -.28139329919841E-04
    58 0.35201502532493E-04
    59 0.00000000000000E+00
    60 0.00000000000000E+00
    61 0.10985753363100E-04
    62 0.13426364233313E-03
    63 -.15669046698660E-01
    64 -.73502926288394E-04
    65 -.13340764835102E-03
    66 0.00000000000000E+00
    67 -.12988371598386E-01
    68 0.15893812564096E-01
    69 0.00000000000000E+00
    70 -.17559592038471E-04
    71 -.25033408745533E-04
    72 0.42593000784003E-04
    73 0.14247538839753E-04
    74 0.00000000000000E+00
    75 0.00000000000000E+00
    76 0.52755736190225E-04
    77 -.10127428492983E-02
    78 0.14293582992031E-01
    79 0.16126424869209E-03
    80 0.77904149968114E-04
    81 0.00000000000000E+00
    82 -.59539875979783E-02
    83 -.21714896539596E-01
    84 0.00000000000000E+00
    85 0.72279374594974E-04
    86 -.44140044675132E-04
    87 -.28139329919841E-04
    88 0.46016414205120E-04
    89 0.00000000000000E+00
    90 0.00000000000000E+00
    91 0.46489027623998E-04
    92 -.11301433935004E-02
    93 0.59744042569707E-02
    94 0.15937282360517E-03
    95 0.11685684282379E-03
    96 0.00000000000000E+00
    97 -.14418170525384E-02
    98 -.84967524647609E-02
    99 0.00000000000000E+00
   100 0.84180767873673E-04
   101 -.13571051331703E-04
   102 -.70609716541970E-04
   103 0.72412318351693E-04
   104 0.00000000000000E+00
   105 0.00000000000000E+00
   106 0.39626084676724E-04
   107 -.78131279655143E-04
   108 -.97727548524323E-02
   109 -.14988445963960E-03
   110 -.12669655290327E-03
   111 0.00000000000000E+00
   112 0.25267883904840E-02
   113 -.36168120981805E-02
   114 0.00000000000000E+00
   115 -.19381889899704E-03
   116 0.73320767695424E-04
   117 0.12049813130162E-03
   118 -.52729124992513E-04
   119 0.00000000000000E+00
   120 0.00000000000000E+00
   121 0.57103273303810E+00
   122 -.25754311104278E-01
   123 0.32926953914976E-01
   124 -.60439779784582E-03
   125 0.23006465293409E-02
   126 0.00000000000000E+00
   127 -.16339060954259E-02
   128 0.84166080720795E-02
   129 0.00000000000000E+00
   130 0.98882333911536E-04
   131 -.20983404814055E-03
   132 0.11095171422901E-03
   133 0.28032041499976E-03
   134 0.00000000000000E+00
   135 0.00000000000000E+00
   136 -.18093237187340E-03
   137 -.38991961657389E-03
   138 -.12205849332608E-01
   139 0.63139809369911E-03
   140 -.13215970800670E-02
   141 0.00000000000000E+00
   142 -.85966790862351E-02
   143 0.14912516614499E-01
   144 0.00000000000000E+00
   145 -.31755725876308E-03
   146 0.61118977183674E-03
   147 -.29363251307366E-03
   148 -.43226172774027E-03
   149 0.00000000000000E+00
   150 0.00000000000000E+00
   151 -.30872123267898E-04
   152 0.83789532019718E-03
   153 -.24740126476969E-02
   154 0.56975760815971E-04
   155 0.81648077926632E-04
   156 0.00000000000000E+00
   157 0.25191887790581E-03
   158 -.92398214690660E-03
   159 0.00000000000000E+00
   160 0.13346212252887E-04
   161 -.81575757449097E-04
   162 0.68229545196210E-04
   163 0.44358738669173E-04
   164 0.00000000000000E+00
   165 0.00000000000000E+00
   166 0.46489027623998E-04
   167 -.11301433935004E-02
   168 0.59744042569707E-02
   169 0.21514582688859E-04
   170 -.19644933532683E-03
   171 0.00000000000000E+00
   172 -.66374949578818E-02
   173 0.54970264274884E-02
   174 0.00000000000000E+00
   175 -.43442335294129E-04
   176 0.11405205183610E-03
   177 -.70609716541970E-04
   178 0.12669750426842E-04
   179 0.00000000000000E+00
   180 0.00000000000000E+00
   181 0.39626084676724E-04
   182 -.78131279655143E-04
   183 -.97727548524323E-02
   184 -.34780203566353E-04
   185 0.19315202613204E-03
   186 0.00000000000000E+00
   187 -.43956453529812E-02
   188 -.37985688705643E-03
   189 0.00000000000000E+00
   190 0.46082694766692E-04
   191 -.16658082606831E-03
   192 0.12049813130162E-03
   193 -.10720527084998E-03
   194 0.00000000000000E+00
   195 0.00000000000000E+00
   196 0.57103273303810E+00
   197 -.25754311104278E-01
   198 0.32926953914976E-01
   199 0.22946172384606E-02
   200 -.62689941774459E-03
   201 0.00000000000000E+00
   202 0.81059494518309E-02
   203 -.27932998500027E-02
   204 0.00000000000000E+00
   205 -.34289526387735E-03
   206 0.23194354964834E-03
   207 0.11095171422901E-03
   208 0.14197983526159E-04
   209 0.00000000000000E+00
   210 0.00000000000000E+00
   211 -.18093237187340E-03
   212 -.38991961657389E-03
   213 -.12205849332608E-01
   214 -.14602356917550E-02
   215 0.11399175098902E-03
   216 0.00000000000000E+00
   217 0.17212957765632E-01
   218 -.11315830387711E-04
   219 0.00000000000000E+00
   220 0.70319930999198E-03
   221 -.40956679691832E-03
   222 -.29363251307366E-03
   223 -.24824265142977E-03
   224 0.00000000000000E+00
   225 0.00000000000000E+00
   226 -.30872123267898E-04
   227 0.83789532019718E-03
   228 -.24740126476969E-02
   229 0.42221429246649E-04
   230 -.90166495229893E-04
   231 0.00000000000000E+00
   232 -.92615145081731E-03
   233 0.24382292549399E-03
   234 0.00000000000000E+00
   235 -.91114319025481E-04
   236 0.22884773829271E-04
   237 0.68229545196210E-04
   238 0.25281615516405E-04
   239 0.00000000000000E+00
   240 0.00000000000000E+00
   241 0.46489027623998E-04
   242 -.11301433935004E-02
   243 0.59744042569707E-02
   244 -.18088740629403E-03
   245 0.79592492503041E-04
   246 0.00000000000000E+00
   247 0.80793120104202E-02
   248 0.29997260372726E-02
   249 0.00000000000000E+00
   250 0.65176142233411E-04
   251 0.54335743085593E-05
   252 -.70609716541970E-04
   253 -.85082068778535E-04
   254 0.00000000000000E+00
   255 0.00000000000000E+00
   256 -.30872123267898E-04
   257 0.83789532019718E-03
   258 -.24740126476969E-02
   259 -.99197190062621E-04
   260 0.85184173032609E-05
   261 0.00000000000000E+00
   262 0.67423257291149E-03
   263 0.68015922141260E-03
   264 0.00000000000000E+00
   265 -.24576211021721E-04
   266 -.43653334174489E-04
   267 0.68229545196210E-04
   268 -.69640354185579E-04
   269 0.00000000000000E+00
   270 0.00000000000000E+00
   271 -.18093237187340E-03
   272 -.38991961657389E-03
   273 -.12205849332608E-01
   274 0.82883759805584E-03
   275 0.12076053290780E-02
   276 0.00000000000000E+00
   277 -.86162786793965E-02
   278 -.14901200784112E-01
   279 0.00000000000000E+00
   280 0.54806718381583E-04
   281 0.23882579469208E-03
   282 -.29363251307366E-03
   283 0.68050437917004E-03
   284 0.00000000000000E+00
   285 0.00000000000000E+00
   286 0.57103273303810E+00
   287 -.25754311104278E-01
   288 0.32926953914976E-01
   289 -.16902194406148E-02
   290 -.16737471115963E-02
   291 0.00000000000000E+00
   292 -.64720433564051E-02
   293 -.56233082220768E-02
   294 0.00000000000000E+00
   295 0.77585358622297E-04
   296 -.18853707285131E-03
   297 0.11095171422901E-03
   298 -.29451839852592E-03
   299 0.00000000000000E+00
   300 0.00000000000000E+00
   301 0.39626084676724E-04
   302 -.78131279655143E-04
   303 -.97727548524323E-02
   304 0.18466466320596E-03
   305 -.66455473228763E-04
   306 0.00000000000000E+00
   307 0.18688569624973E-02
   308 0.39966689852370E-02
   309 0.00000000000000E+00
   310 -.33010992722078E-04
   311 -.87487138579542E-04
   312 0.12049813130162E-03
   313 0.15993439584249E-03
   314 0.00000000000000E+00
   315 0.00000000000000E+00
   316 -.18736244120765E-03
   317 -.30113627966706E-03
   318 0.46883957183786E-04
   319 0.52344846141497E-03
   320 0.46883957183786E-04
   321 0.52344846141497E-03
   322 -.18736244120765E-03
   323 -.30113627966706E-03
   324 -.18736244120765E-03
   325 -.30113627966706E-03
   326 0.46883957183786E-04
   327 0.52344846141497E-03
   328 0.46883957183786E-04
   329 0.52344846141497E-03
   330 0.46883957183786E-04
   331 0.52344846141497E-03
   332 0.46883957183786E-04
   333 0.52344846141497E-03
 Sym=     1e'  (2)
 Ene= -.14132937113970E+02
 Spin= Alpha
 Occup= 2.000000
     1 -.25002502551480E-04
     2 0.44467471890499E-03
     3 0.96605854996016E-03
     4 0.35945709947885E-04
     5 -.18477721648261E-04
     6 0.00000000000000E+00
     7 -.18903250921175E-02
     8 0.12149118667683E-02
     9 0.00000000000000E+00
    10 -.11469305987182E-04
    11 0.91659755600722E-05
    12 0.23033304271096E-05
    13 -.11064629625214E-05
    14 0.00000000000000E+00
    15 0.00000000000000E+00
    16 -.17500604840074E-04
    17 0.12164678179042E-03
    18 0.11901709514977E-01
    19 -.79403922804793E-04
    20 -.48889096908831E-04
    21 0.00000000000000E+00
    22 0.11665684249265E-03
    23 0.81113999303600E-02
    24 0.00000000000000E+00
    25 -.19806862642839E-04
    26 0.34418677892713E-04
    27 -.14611815249874E-04
    28 0.44378501628290E-04
    29 0.00000000000000E+00
    30 0.00000000000000E+00
    31 -.52596823109075E-04
    32 0.94300584569712E-03
    33 0.45085751258804E-02
    34 0.50180838304451E-04
    35 0.24206287713149E-03
    36 0.00000000000000E+00
    37 0.25299062730303E-02
    38 -.33114688442086E-02
    39 0.00000000000000E+00
    40 0.50757398355578E-04
    41 -.74634018352652E-04
    42 0.23876619997073E-04
    43 -.19148465347840E-05
    44 0.00000000000000E+00
    45 0.00000000000000E+00
    46 0.50870074654356E-04
    47 -.11060602376098E-02
    48 0.11381180851565E-01
    49 -.75328739316675E-04
    50 -.25061106036020E-03
    51 0.00000000000000E+00
    52 -.57886763746992E-02
    53 0.95893988163810E-02
    54 0.00000000000000E+00
    55 -.99457345630961E-04
    56 0.16261782199311E-03
    57 -.63160476362153E-04
    58 0.39165763726333E-04
    59 0.00000000000000E+00
    60 0.00000000000000E+00
    61 0.70097427949149E-04
    62 -.10646526274875E-02
    63 -.16410284640858E-01
    64 0.23736025854998E-03
    65 -.15636804952613E-04
    66 0.00000000000000E+00
    67 -.85692129851110E-02
    68 0.31003023056176E-03
    69 0.00000000000000E+00
    70 0.57143882539075E-04
    71 -.47879077791875E-04
    72 -.92648047471992E-05
    73 0.11104030616864E-03
    74 0.00000000000000E+00
    75 0.00000000000000E+00
    76 -.25867572102876E-04
    77 0.66138551870478E-03
    78 -.12347239401525E-01
    79 -.22072488307424E-03
    80 -.38177891149001E-04
    81 0.00000000000000E+00
    82 0.34130177086175E-02
    83 0.87782265851660E-02
    84 0.00000000000000E+00
    85 -.13131035527699E-03
    86 0.70453209341951E-04
    87 0.60857145935043E-04
    88 -.10169029265650E-03
    89 0.00000000000000E+00
    90 0.00000000000000E+00
    91 -.27210667858151E-06
    92 -.71661771762954E-04
    93 -.15751099777081E-02
    94 0.63653308171287E-04
    95 0.88247976667341E-04
    96 0.00000000000000E+00
    97 0.20887290888875E-02
    98 -.23744546263790E-02
    99 0.00000000000000E+00
   100 -.31128515422554E-04
   101 0.35079642372409E-04
   102 -.39511269498548E-05
   103 0.37586257415374E-04
   104 0.00000000000000E+00
   105 0.00000000000000E+00
   106 0.99444419285801E-05
   107 -.57773642488062E-04
   108 -.15203695394764E-02
   109 -.81134488807485E-04
   110 -.40361757426336E-04
   111 0.00000000000000E+00
   112 0.25313183254745E-03
   113 -.60288363702319E-03
   114 0.00000000000000E+00
   115 -.23152183100931E-04
   116 -.72685826858975E-06
   117 0.23879041369520E-04
   118 -.17917225185844E-04
   119 0.00000000000000E+00
   120 0.00000000000000E+00
   121 0.77186255298638E-01
   122 -.34199098220446E-02
   123 0.33284322952302E-02
   124 -.74618327151651E-04
   125 0.31200306852414E-03
   126 0.00000000000000E+00