
 statpt (c-3-37.gp.local) : TURBOMOLE V7.2 ( 21454 ) 2 Oct 2017 at 16:43:05
 Copyright (C) 2017 TURBOMOLE GmbH, Karlsruhe


    2018-03-19 13:38:38.443 



                           this is S T A T P T   


                     hessian and coordinate update for
                          stationary point search 

                     by barbara unterreiner, marek sierka,
                           and reinhart ahlrichs

                          quantum chemistry group
                          universitaet  karlsruhe
                                  germany




              +--------------------------------------------------+
              | Atomic coordinate, charge and isotop information |
              +--------------------------------------------------+

                    atomic coordinates            atom    charge  isotop
         -0.89289958   -2.34420053    0.00000000    c      6.000     0
         -2.48491429   -0.43126475    0.00000000    c      6.000     0
          1.61594338   -1.93636653    0.00000000    c      6.000     0
          2.47658700    0.39882655    0.00000000    c      6.000     0
          0.86897091    2.36763128    0.00000000    c      6.000     0
         -1.58368742    1.94537398    0.00000000    c      6.000     0
          3.37140701   -3.68999042    0.00000000    c      6.000     0
          2.35662693   -6.23972826    0.00000000    c      6.000     0
         -0.31047837   -6.62413720    0.00000000    n      7.000     0
         -1.94756012   -4.56098337    0.00000000    c      6.000     0
         -4.89239566   -4.07523432    0.00000000    c      6.000     0
         -4.88132895   -1.07472890    0.00000000    c      6.000     0
         -6.58207666    1.07896534    0.00000000    c      6.000     0
         -5.58143191    3.58095075    0.00000000    n      7.000     0
         -2.97614740    3.96712823    0.00000000    c      6.000     0
         -1.08305862    6.27455609    0.00000000    c      6.000     0
          1.50992194    4.76471932    0.00000000    c      6.000     0
          5.97545428   -2.19932177    0.00000000    c      6.000     0
          4.92370753    0.59385514    0.00000000    c      6.000     0
          5.89191028    3.04318644    0.00000000    n      7.000     0
          4.22544972    5.16076292    0.00000000    c      6.000     0
          4.98270166    7.05844889    0.00000000    h      1.000     0
          7.09113144   -2.59925943    1.74189179    h      1.000     0
          7.09113144   -2.59925943   -1.74189179    h      1.000     0
          3.62144522   -7.84437066    0.00000000    h      1.000     0
         -8.60414688    0.78592177    0.00000000    h      1.000     0
         -5.79659042   -4.84147025   -1.74189179    h      1.000     0
         -5.79659042   -4.84147025    1.74189179    h      1.000     0
         -1.29454102    7.44072968   -1.74189179    h      1.000     0
         -1.29454102    7.44072968    1.74189179    h      1.000     0
 
       center of nuclear mass  :    0.00000000    0.00000000    0.00000000
       center of nuclear charge:    0.00000000    0.00000000    0.00000000
 
        ***************  Stationary point options ******************
        ************************************************************
           Maximum allowed trust radius:           3.000000E-01
           Minimum allowed trust radius:           1.000000E-03
           Initial trust radius:                   1.500000E-01
           GDIIS used if gradient norm <           1.000000E-02
           Number of previous steps for GDIIS:       5
           Hessian update method:                  Powell
           Initial index of transition vector:       1
                        *** Convergence criteria ***                
           Threshold for energy change:            1.000000E-06
           Threshold for max displacement element: 1.000000E-03
           Threshold for max gradient element :    1.000000E-03
           Threshold for RMS of displacement:      5.000000E-04
           Threshold for RMS of gradient:          5.000000E-04
        ************************************************************
 
     Number of symmetry restricted degrees of freedom:    19
     Constituted by:     0 translational degrees of freedom
                         1 rotational degrees of freedom
                      18 internal degrees of freedom


 keyword $optinfo  missing in file <control>

  *************************************************************************
   ATOM                      CARTESIAN COORDINATES
    1 c      -0.89289957797848     -2.34420053300440      0.00000000000000
    2 c      -2.48491429292595     -0.43126475494183      0.00000000000000
    3 c       1.61594337999947     -1.93636652643000      0.00000000000000
    4 c       2.47658700213607      0.39882654894443      0.00000000000000
    5 c       0.86897091292648      2.36763128137183      0.00000000000000
    6 c      -1.58368742415759      1.94537398405997      0.00000000000000
    7 c       3.37140700522104     -3.68999042341606      0.00000000000000
    8 c       2.35662693348884     -6.23972826317774      0.00000000000000
    9 n      -0.31047836986444     -6.62413719861854      0.00000000000000
   10 c      -1.94756012444821     -4.56098337073221      0.00000000000000
   11 c      -4.89239566112710     -4.07523431973108      0.00000000000000
   12 c      -4.88132894901013     -1.07472890131021      0.00000000000000
   13 c      -6.58207665536810      1.07896533994492      0.00000000000000
   14 n      -5.58143190722492      3.58095075493746      0.00000000000000
   15 c      -2.97614740306836      3.96712822853584      0.00000000000000
   16 c      -1.08305861669775      6.27455608776638      0.00000000000000
   17 c       1.50992194378909      4.76471932472627      0.00000000000000
   18 c       5.97545427782486     -2.19932176803530      0.00000000000000
   19 c       4.92370752751657      0.59385514219637      0.00000000000000
   20 n       5.89191027708936      3.04318644368109      0.00000000000000
   21 c       4.22544972187926      5.16076292323283      0.00000000000000
   22 h       4.98270165781090      7.05844889418939      0.00000000000000
   23 h       7.09113143759308     -2.59925943385768      1.74189179133292
   24 h       7.09113143759308     -2.59925943385768     -1.74189179133292
   25 h       3.62144522477674     -7.84437066223778      0.00000000000000
   26 h      -8.60414688258764      0.78592176804839      0.00000000000000
   27 h      -5.79659041954365     -4.84147024960123     -1.74189179133292
   28 h      -5.79659041954365     -4.84147024960123      1.74189179133292
   29 h      -1.29454101804943      7.44072968345892     -1.74189179133292
   30 h      -1.29454101804943      7.44072968345892      1.74189179133292
  *************************************************************************
   ATOM                      CARTESIAN GRADIENTS  
    1 c      -0.05727340468841      0.00435178992929      0.00000000000000
    2 c       0.00751564112024     -0.05668528788566      0.00000000000000
    3 c       0.04533307876970      0.03485138007868      0.00000000000000
    4 c       0.02486794171351     -0.05177611838603      0.00000000000000
    5 c      -0.05284871988994      0.02183390780697      0.00000000000000
    6 c       0.03240546297490      0.04742432845675      0.00000000000000
    7 c      -0.05956969645693      0.07802776967941      0.00000000000000
    8 c       0.04261802340220     -0.04249726766959      0.00000000000000
    9 n      -0.01513943629484      0.00166572905563      0.00000000000000
   10 c       0.00595082263200      0.10968222321540      0.00000000000000
   11 c      -0.00351152996455     -0.00286748100481      0.00000000000000
   12 c       0.09735887897147      0.01257498558773      0.00000000000000
   13 c      -0.05811272509439     -0.01565965709059      0.00000000000000
   14 n       0.00901228182542      0.01227827190250      0.00000000000000
   15 c       0.09201218033209     -0.05999467518043      0.00000000000000
   16 c      -0.00072754641276      0.00447481465786      0.00000000000000
   17 c      -0.03778918251454     -0.09060275526713      0.00000000000000
   18 c       0.00423907637731     -0.00160733365305      0.00000000000000
   19 c      -0.09796300296409     -0.04968754803497      0.00000000000000
   20 n       0.00612715446943     -0.01394400095813      0.00000000000000
   21 c       0.01549470169220      0.05815692476018      0.00000000000000
   22 h      -0.01465147381541     -0.00561929472226      0.00000000000000
   23 h      -0.00127963093443      0.00024065012073      0.00778712068584
   24 h      -0.00127963093443      0.00024065012073     -0.00778712068584
   25 h       0.00245928492687      0.01549819588816      0.00000000000000
   26 h       0.01219218888853     -0.00987890116589      0.00000000000000
   27 h       0.00084822458519      0.00098786783632     -0.00778712068584
   28 h       0.00084822458519      0.00098786783632      0.00778712068584
   29 h       0.00043140634924     -0.00122851795705     -0.00778712068584
   30 h       0.00043140634924     -0.00122851795705      0.00778712068584
  *************************************************************************

  norm of actual CARTESIAN gradient:  3.12332E-01
  norm of actual INTERNAL  gradient:  3.37654E-01

  ENERGY =    -854.9343174411 a.u.; # of cycle =    1


 keyword $hessapprox missing in file <control>


  Found initial Hessian matrix in $hessian section
  Number of zero Hessian eigenvalues:   0

   5 first eigenvalues: 
  0.10532942  0.11600208  0.12109881  0.14985342  0.16463095

  Eigenvalue of transition vector:  0.10532942

                  #######################################
                   WARNING: HESSIAN HAS WRONG INERTIA!!! 
                  TRANSITION MODE HAS POSITIVE EIGENVALUE
                                0.11E+00
                  #######################################

  Results of the TRO shift search
  Final shift: -1.37771E+00 residual -3.46945E-17
  Final step radius: 1.50000E-01

  Transforming internal coordinate displacements to Cartesian space
      Iteration   1 residual norm     1.500000E-01
      Iteration   2 residual norm     2.173826E-03
      Iteration   3 residual norm     1.715280E-07
      Iteration   4 residual norm     2.298545E-15
      Transformation converged
      Residual norm:    2.298545E-15 after    4 iterations

      ****************************************************************** 
                          CONVERGENCE INFORMATION

                               Converged?     Value      Criterion
             Energy change         no     854.9343174   0.0000010
             RMS of displacement   no       0.0353553   0.0005000
             RMS of gradient       no       0.0795858   0.0005000
             MAX displacement      no       0.0840517   0.0010000
             MAX gradient          no       0.1988934   0.0010000
      ****************************************************************** 


    ------------------------------------------------------------------------
         total  cpu-time :   0.05 seconds
         total wall-time :   0.07 seconds
    ------------------------------------------------------------------------

   ****  statpt : all done  ****


    2018-03-19 13:38:38.500 


 statpt (c-3-37.gp.local) : TURBOMOLE V7.2 ( 21454 ) 2 Oct 2017 at 16:43:05
 Copyright (C) 2017 TURBOMOLE GmbH, Karlsruhe


    2018-03-19 13:38:47.715 



                           this is S T A T P T   


                     hessian and coordinate update for
                          stationary point search 

                     by barbara unterreiner, marek sierka,
                           and reinhart ahlrichs

                          quantum chemistry group
                          universitaet  karlsruhe
                                  germany




              +--------------------------------------------------+
              | Atomic coordinate, charge and isotop information |
              +--------------------------------------------------+

                    atomic coordinates            atom    charge  isotop
         -0.89155508   -2.38252267    0.00000000    c      6.000     0
         -2.51847352   -0.43550728    0.00000000    c      6.000     0
          1.63639712   -1.96330841    0.00000000    c      6.000     0
          2.50910270    0.41915199    0.00000000    c      6.000     0
          0.88207640    2.39881569    0.00000000    c      6.000     0
         -1.61754762    1.96337069    0.00000000    c      6.000     0
          3.42508809   -3.73616310    0.00000000    c      6.000     0
          2.34603992   -6.25378028    0.00000000    c      6.000     0
         -0.29682064   -6.65959877    0.00000000    n      7.000     0
         -1.96582265   -4.64039669    0.00000000    c      6.000     0
         -4.90946755   -4.10138724    0.00000000    c      6.000     0
         -4.94815620   -1.09813175    0.00000000    c      6.000     0
         -6.58895256    1.09515997    0.00000000    c      6.000     0
         -5.61897139    3.58685360    0.00000000    n      7.000     0
         -3.03579009    4.02265070    0.00000000    c      6.000     0
         -1.09717176    6.30241724    0.00000000    c      6.000     0
          1.52306811    4.83429485    0.00000000    c      6.000     0
          6.00663931   -2.20103000    0.00000000    c      6.000     0
          5.00161274    0.61774599    0.00000000    c      6.000     0
          5.91579204    3.07274517    0.00000000    n      7.000     0
          4.24291264    5.15862031    0.00000000    c      6.000     0
          5.03234660    7.05003909    0.00000000    h      1.000     0
          7.12466107   -2.59854291    1.73650531    h      1.000     0
          7.12466107   -2.59854291   -1.73650531    h      1.000     0
          3.58933965   -7.88315954    0.00000000    h      1.000     0
         -8.62168625    0.83312045    0.00000000    h      1.000     0
         -5.81273470   -4.87086602   -1.73650531    h      1.000     0
         -5.81273470   -4.87086602    1.73650531    h      1.000     0
         -1.31192636    7.46940893   -1.73650531    h      1.000     0
         -1.31192636    7.46940893    1.73650531    h      1.000     0
 
       center of nuclear mass  :    0.00000000    0.00000000    0.00000000
       center of nuclear charge:    0.00000000    0.00000000    0.00000000
 
        ***************  Stationary point options ******************
        ************************************************************
           Maximum allowed trust radius:           3.000000E-01
           Minimum allowed trust radius:           1.000000E-03
           Initial trust radius:                   1.500000E-01
           GDIIS used if gradient norm <           1.000000E-02
           Number of previous steps for GDIIS:       5
           Hessian update method:                  Powell
           Initial index of transition vector:       1
                        *** Convergence criteria ***                
           Threshold for energy change:            1.000000E-06
           Threshold for max displacement element: 1.000000E-03
           Threshold for max gradient element :    1.000000E-03
           Threshold for RMS of displacement:      5.000000E-04
           Threshold for RMS of gradient:          5.000000E-04
        ************************************************************
 
     Number of symmetry restricted degrees of freedom:    19
     Constituted by:     0 translational degrees of freedom
                         1 rotational degrees of freedom
                      18 internal degrees of freedom

  *************************************************************************
   ATOM                      CARTESIAN COORDINATES
    1 c      -0.89155508172745     -2.38252267313732      0.00000000000000
    2 c      -2.51847352031381     -0.43550727556882      0.00000000000000
    3 c       1.63639712433245     -1.96330840956577      0.00000000000000
    4 c       2.50910270089305      0.41915198691957      0.00000000000000
    5 c       0.88207639598136      2.39881568513459      0.00000000000000
    6 c      -1.61754761916560      1.96337068621774      0.00000000000000
    7 c       3.42508809381024     -3.73616310069603      0.00000000000000
    8 c       2.34603992036097     -6.25378028453043      0.00000000000000
    9 n      -0.29682064441511     -6.65959876960205      0.00000000000000
   10 c      -1.96582265245759     -4.64039668890396      0.00000000000000
   11 c      -4.90946755022135     -4.10138723675436      0.00000000000000
   12 c      -4.94815620478993     -1.09813174909127      0.00000000000000
   13 c      -6.58895255627012      1.09515997294020      0.00000000000000
   14 n      -5.61897139127941      3.58685360323219      0.00000000000000
   15 c      -3.03579008999922      4.02265070081516      0.00000000000000
   16 c      -1.09717176267585      6.30241723592423      0.00000000000000
   17 c       1.52306811097969      4.83429484978730      0.00000000000000
   18 c       6.00663931289721     -2.20102999916987      0.00000000000000
   19 c       5.00161274245681      0.61774598808880      0.00000000000000
   20 n       5.91579203569452      3.07274516636988      0.00000000000000
   21 c       4.24291263590915      5.15862031159024      0.00000000000000
   22 h       5.03234659985096      7.05003909101505      0.00000000000000
   23 h       7.12466106726403     -2.59854290683669      1.73650530772244
   24 h       7.12466106726403     -2.59854290683669     -1.73650530772244
   25 h       3.58933965056690     -7.88315954162670      0.00000000000000
   26 h      -8.62168625041786      0.83312045061166      0.00000000000000
   27 h      -5.81273470377645     -4.87086602418625     -1.73650530772244
   28 h      -5.81273470377645     -4.87086602418625      1.73650530772244
   29 h      -1.31192636348758      7.46940893102296     -1.73650530772244
   30 h      -1.31192636348758      7.46940893102296      1.73650530772244
  *************************************************************************
   ATOM                      CARTESIAN GRADIENTS  
    1 c      -0.03757549512347      0.00066703761111      0.00000000000000
    2 c       0.00121571098872     -0.03830713845202      0.00000000000000
    3 c       0.03256709955138      0.02020640582590      0.00000000000000
    4 c       0.01821007604524     -0.03287485214225      0.00000000000000
    5 c      -0.03378281054010      0.01810073262612      0.00000000000000
    6 c       0.01936541907824      0.03220781453115      0.00000000000000
    7 c      -0.03506115848164      0.05086701585604      0.00000000000000
    8 c       0.02902289645657     -0.03177784144639      0.00000000000000
    9 n      -0.00855742599549      0.00415367751716      0.00000000000000
   10 c      -0.00745749249698      0.06742339620469      0.00000000000000
   11 c       0.00032139477657      0.00108430063872      0.00000000000000
   12 c       0.06158270718685      0.00493034600320      0.00000000000000
   13 c      -0.04203186619829     -0.00924564489960      0.00000000000000
   14 n       0.00787590324674      0.00533410954452      0.00000000000000
   15 c       0.06211912017118     -0.02725332015143      0.00000000000000
   16 c       0.00077833451018     -0.00082048636051      0.00000000000000
   17 c      -0.02652154870521     -0.05579736185923      0.00000000000000
   18 c      -0.00109972928675     -0.00026381427821      0.00000000000000
   19 c      -0.05466162767419     -0.04017007605326      0.00000000000000
   20 n       0.00068152274875     -0.00948778706168      0.00000000000000
   21 c       0.01300896974172      0.04102348634599      0.00000000000000
   22 h      -0.01315522063522     -0.00411725118119      0.00000000000000
   23 h      -0.00216118268283      0.00078328252804      0.00683642559263
   24 h      -0.00216118268283      0.00078328252804     -0.00683642559263
   25 h       0.00301196620094      0.01345138085309      0.00000000000000
   26 h       0.01014325443428     -0.00933412967190      0.00000000000000
   27 h       0.00175893390904      0.00147999784153     -0.00683642559263
   28 h       0.00175893390904      0.00147999784153      0.00683642559263
   29 h       0.00040224877379     -0.00226328036958     -0.00683642559263
   30 h       0.00040224877379     -0.00226328036958      0.00683642559263
  *************************************************************************

  norm of actual CARTESIAN gradient:  2.01526E-01
  norm of actual INTERNAL  gradient:  2.10164E-01

  ENERGY =    -854.9750834348 a.u.; # of cycle =    2

  Approximate Hessian read from $hessapprox data section

  Hessian updated according to Powell formula
  Number of zero Hessian eigenvalues:   0

   5 first eigenvalues: 
  0.10487834  0.11496472  0.12108369  0.14989607  0.16395433

  Eigenvalue of transition vector:  0.10487834

                  #######################################
                   WARNING: HESSIAN HAS WRONG INERTIA!!! 
                  TRANSITION MODE HAS POSITIVE EIGENVALUE
                                0.10E+00
                  #######################################

  Largest and next-largest overlaps:   0.99725395  0.06934683

  Old transition vector    1 has overlap 0.99725395 with the new    1

        ***************  Trust radius update info  *****************
                Actual energy change:       -4.07660E-02
                Predicted energy change:    -4.03770E-02
                Actual step radius:          1.50000E-01
                Actual trust radius:         0.150000
                Energy change ratio:         1.009634
                New trust radius:            0.300000
        ************************************************************


  Results of the TRO shift search
  Final shift: -1.76365E-01 residual  2.77556E-17
  Final step radius: 3.00000E-01

  Transforming internal coordinate displacements to Cartesian space
      Iteration   1 residual norm     3.000000E-01
      Iteration   2 residual norm     5.804936E-03
      Iteration   3 residual norm     8.731467E-07
      Iteration   4 residual norm     8.173191E-14
      Transformation converged
      Residual norm:    8.173191E-14 after    4 iterations

      ****************************************************************** 
                          CONVERGENCE INFORMATION

                               Converged?     Value      Criterion
             Energy change         no       0.0407660   0.0000010
             RMS of displacement   no       0.0707107   0.0005000
             RMS of gradient       no       0.0495360   0.0005000
             MAX displacement      no       0.1234731   0.0010000
             MAX gradient          no       0.1197843   0.0010000
      ****************************************************************** 


    ------------------------------------------------------------------------
         total  cpu-time :   0.04 seconds
         total wall-time :   0.05 seconds
    ------------------------------------------------------------------------

   ****  statpt : all done  ****


    2018-03-19 13:38:47.754 


 statpt (c-3-37.gp.local) : TURBOMOLE V7.2 ( 21454 ) 2 Oct 2017 at 16:43:05
 Copyright (C) 2017 TURBOMOLE GmbH, Karlsruhe


    2018-03-19 13:38:56.672 



                           this is S T A T P T   


                     hessian and coordinate update for
                          stationary point search 

                     by barbara unterreiner, marek sierka,
                           and reinhart ahlrichs

                          quantum chemistry group
                          universitaet  karlsruhe
                                  germany




              +--------------------------------------------------+
              | Atomic coordinate, charge and isotop information |
              +--------------------------------------------------+

                    atomic coordinates            atom    charge  isotop
         -0.87348176   -2.43273411    0.00000000    c      6.000     0
         -2.55580816   -0.44799020    0.00000000    c      6.000     0
          1.66587497   -1.98939970    0.00000000    c      6.000     0
          2.54355042    0.45990966    0.00000000    c      6.000     0
          0.88993319    2.43738989    0.00000000    c      6.000     0
         -1.67006866    1.97282445    0.00000000    c      6.000     0
          3.49492456   -3.80281528    0.00000000    c      6.000     0
          2.32399806   -6.27086855    0.00000000    c      6.000     0
         -0.27747082   -6.71836779    0.00000000    n      7.000     0
         -1.95071334   -4.75574579    0.00000000    c      6.000     0
         -4.95424271   -4.15065403    0.00000000    c      6.000     0
         -5.04079692   -1.12528581    0.00000000    c      6.000     0
         -6.59273050    1.12279291    0.00000000    c      6.000     0
         -5.67954177    3.59948068    0.00000000    n      7.000     0
         -3.14324000    4.06724020    0.00000000    c      6.000     0
         -1.11745048    6.36582706    0.00000000    c      6.000     0
          1.54587236    4.92810109    0.00000000    c      6.000     0
          6.07169319   -2.21517303    0.00000000    c      6.000     0
          5.09395333    0.68850559    0.00000000    c      6.000     0
          5.95701259    3.11888711    0.00000000    n      7.000     0
          4.26873244    5.14807564    0.00000000    c      6.000     0
          5.14958797    7.01765645    0.00000000    h      1.000     0
          7.15146964   -2.57108122    1.75427015    h      1.000     0
          7.15146964   -2.57108122   -1.75427015    h      1.000     0
          3.50267478   -7.96850223    0.00000000    h      1.000     0
         -8.65226275    0.95084577    0.00000000    h      1.000     0
         -5.80235647   -4.90781377   -1.75427015    h      1.000     0
         -5.80235647   -4.90781377    1.75427015    h      1.000     0
         -1.34911317    7.47889499   -1.75427015    h      1.000     0
         -1.34911317    7.47889499    1.75427015    h      1.000     0
 
       center of nuclear mass  :    0.00000000    0.00000000    0.00000000
       center of nuclear charge:    0.00000000    0.00000000    0.00000000
 
        ***************  Stationary point options ******************
        ************************************************************
           Maximum allowed trust radius:           3.000000E-01
           Minimum allowed trust radius:           1.000000E-03
           Initial trust radius:                   1.500000E-01
           GDIIS used if gradient norm <           1.000000E-02
           Number of previous steps for GDIIS:       5
           Hessian update method:                  Powell
           Initial index of transition vector:       1
                        *** Convergence criteria ***                
           Threshold for energy change:            1.000000E-06
           Threshold for max displacement element: 1.000000E-03
           Threshold for max gradient element :    1.000000E-03
           Threshold for RMS of displacement:      5.000000E-04
           Threshold for RMS of gradient:          5.000000E-04
        ************************************************************
 
     Number of symmetry restricted degrees of freedom:    19
     Constituted by:     0 translational degrees of freedom
                         1 rotational degrees of freedom
                      18 internal degrees of freedom

  *************************************************************************
   ATOM                      CARTESIAN COORDINATES
    1 c      -0.87348176256076     -2.43273410870715      0.00000000000000
    2 c      -2.55580816019255     -0.44799019530861      0.00000000000000
    3 c       1.66587496987988     -1.98939969627201      0.00000000000000
    4 c       2.54355042007367      0.45990965823354      0.00000000000000
    5 c       0.88993319031267      2.43738989158062      0.00000000000000
    6 c      -1.67006865751290      1.97282445047360      0.00000000000000
    7 c       3.49492455636899     -3.80281528240364      0.00000000000000
    8 c       2.32399806481693     -6.27086855254855      0.00000000000000
    9 n      -0.27747082175383     -6.71836778976446      0.00000000000000
   10 c      -1.95071333615600     -4.75574578539811      0.00000000000000
   11 c      -4.95424270807662     -4.15065403339617      0.00000000000000
   12 c      -5.04079691864575     -1.12528580892379      0.00000000000000
   13 c      -6.59273050270847      1.12279291379694      0.00000000000000
   14 n      -5.67954176702622      3.59948067533001      0.00000000000000
   15 c      -3.14323999601753      4.06724019731124      0.00000000000000
   16 c      -1.11745048120311      6.36582705840626      0.00000000000000
   17 c       1.54587236227676      4.92810109132743      0.00000000000000
   18 c       6.07169318927974     -2.21517302501009      0.00000000000000
   19 c       5.09395333217353      0.68850558808687      0.00000000000000
   20 n       5.95701258878005      3.11888711443447      0.00000000000000
   21 c       4.26873243789154      5.14807563875162      0.00000000000000
   22 h       5.14958797051025      7.01765645314369      0.00000000000000
   23 h       7.15146964053262     -2.57108122335324      1.75427015396697
   24 h       7.15146964053262     -2.57108122335324     -1.75427015396697
   25 h       3.50267477819911     -7.96850222805647      0.00000000000000
   26 h      -8.65226274870936      0.95084577491279      0.00000000000000
   27 h      -5.80235647488339     -4.90781377141779     -1.75427015396697
   28 h      -5.80235647488339     -4.90781377141779      1.75427015396697
   29 h      -1.34911316564923      7.47889499477105     -1.75427015396697
   30 h      -1.34911316564923      7.47889499477105      1.75427015396697
  *************************************************************************
   ATOM                      CARTESIAN GRADIENTS  
    1 c      -0.01030887621071     -0.00246106124951      0.00000000000000
    2 c       0.00003358085142     -0.01293083066721      0.00000000000000
    3 c       0.01118163742414      0.00649449720402      0.00000000000000
    4 c       0.00728577966770     -0.00769721805818      0.00000000000000
    5 c      -0.01121521827556      0.00643633346320      0.00000000000000
    6 c       0.00302309654301      0.01015827930770      0.00000000000000
    7 c      -0.00683765532156      0.01543755357293      0.00000000000000
    8 c       0.00455085823120     -0.01075931531364      0.00000000000000
    9 n      -0.00032052904455      0.00624550585781      0.00000000000000
   10 c      -0.00563070340315      0.01392787532571      0.00000000000000
   11 c      -0.00949375000955     -0.00074911651088      0.00000000000000
   12 c       0.01678814122722     -0.00179719357567      0.00000000000000
   13 c      -0.01159326950454      0.00143849881957      0.00000000000000
   14 n       0.00556903125462     -0.00284516663368      0.00000000000000
   15 c       0.01487724555438     -0.00208760547455      0.00000000000000
   16 c       0.00409812107596      0.00859638694089      0.00000000000000
   17 c      -0.00995048590566     -0.01364035999725      0.00000000000000
   18 c       0.00539562893359     -0.00784727043001      0.00000000000000
   19 c      -0.00924654215123     -0.01184026985116      0.00000000000000
   20 n      -0.00524850221007     -0.00340033922413      0.00000000000000
   21 c       0.00704241127333      0.00932081649406      0.00000000000000
   22 h      -0.00619587558032     -0.00093338091319      0.00000000000000
   23 h      -0.00652559655541      0.00324931351990      0.00573312712888
   24 h      -0.00652559655541      0.00324931351990     -0.00573312712888
   25 h       0.00228960620793      0.00583247610784      0.00000000000000
   26 h       0.00390626937239     -0.00489909519465      0.00000000000000
   27 h       0.00607678633080      0.00402667563188     -0.00573312712888
   28 h       0.00607678633080      0.00402667563188      0.00573312712888
   29 h       0.00044881022461     -0.00727598915178     -0.00573312712888
   30 h       0.00044881022461     -0.00727598915178      0.00573312712888
  *************************************************************************

  norm of actual CARTESIAN gradient:  6.16730E-02
  norm of actual INTERNAL  gradient:  6.45313E-02

  ENERGY =    -855.0041424944 a.u.; # of cycle =    3

  Approximate Hessian read from $hessapprox data section

  Hessian updated according to Powell formula
  Number of zero Hessian eigenvalues:   0

   5 first eigenvalues: 
  0.10762173  0.11643713  0.12107007  0.15019277  0.16351679

  Eigenvalue of transition vector:  0.10762173

                  #######################################
                   WARNING: HESSIAN HAS WRONG INERTIA!!! 
                  TRANSITION MODE HAS POSITIVE EIGENVALUE
                                0.11E+00
                  #######################################

  Largest and next-largest overlaps:   0.96876756  0.20840927

  Old transition vector    1 has overlap 0.96876756 with the new    1

        ***************  Trust radius update info  *****************
                Actual energy change:       -2.90591E-02
                Predicted energy change:    -2.77183E-02
                Actual step radius:          3.00000E-01
                Actual trust radius:         0.300000
                Energy change ratio:         1.048371
                New trust radius:            0.300000
        ************************************************************


  Results of the TRO shift search
  Final shift: -2.03350E-01 residual -2.58821E-14
  Final step radius: 3.00000E-01

  Transforming internal coordinate displacements to Cartesian space
      Iteration   1 residual norm     3.000000E-01
      Iteration   2 residual norm     1.096556E-02
      Iteration   3 residual norm     5.677528E-06
      Iteration   4 residual norm     8.342773E-12
      Transformation converged
      Residual norm:    8.342773E-12 after    4 iterations

      ****************************************************************** 
                          CONVERGENCE INFORMATION

                               Converged?     Value      Criterion
             Energy change         no       0.0290591   0.0000010
             RMS of displacement   no       0.0707107   0.0005000
             RMS of gradient       no       0.0152102   0.0005000
             MAX displacement      no       0.2445023   0.0010000
             MAX gradient          no       0.0313727   0.0010000
      ****************************************************************** 


    ------------------------------------------------------------------------
         total  cpu-time :   0.04 seconds
         total wall-time :   0.05 seconds
    ------------------------------------------------------------------------

   ****  statpt : all done  ****


    2018-03-19 13:38:56.711 


 statpt (c-3-37.gp.local) : TURBOMOLE V7.2 ( 21454 ) 2 Oct 2017 at 16:43:05
 Copyright (C) 2017 TURBOMOLE GmbH, Karlsruhe


    2018-03-19 13:39:04.431 



                           this is S T A T P T   


                     hessian and coordinate update for
                          stationary point search 

                     by barbara unterreiner, marek sierka,
                           and reinhart ahlrichs

                          quantum chemistry group
                          universitaet  karlsruhe
                                  germany




              +--------------------------------------------------+
              | Atomic coordinate, charge and isotop information |
              +--------------------------------------------------+

                    atomic coordinates            atom    charge  isotop
         -0.87931595   -2.44909773    0.00000000    c      6.000     0
         -2.57160704   -0.43955242    0.00000000    c      6.000     0
          1.66646708   -2.00730081    0.00000000    c      6.000     0
          2.56063882    0.46303891    0.00000000    c      6.000     0
          0.90513995    2.44685323    0.00000000    c      6.000     0
         -1.68132287    1.98605882    0.00000000    c      6.000     0
          3.50986566   -3.83850409    0.00000000    c      6.000     0
          2.33015118   -6.30144373    0.00000000    c      6.000     0
         -0.27478671   -6.75557641    0.00000000    n      7.000     0
         -1.94737563   -4.79964400    0.00000000    c      6.000     0
         -5.02009652   -4.15675527    0.00000000    c      6.000     0
         -5.07917488   -1.12038078    0.00000000    c      6.000     0
         -6.62228594    1.13275175    0.00000000    c      6.000     0
         -5.71310744    3.61576047    0.00000000    n      7.000     0
         -3.18292582    4.08629876    0.00000000    c      6.000     0
         -1.08980740    6.42590876    0.00000000    c      6.000     0
          1.56930922    4.95888486    0.00000000    c      6.000     0
          6.10990393   -2.26915348    0.00000000    c      6.000     0
          5.13030144    0.71334524    0.00000000    c      6.000     0
          5.98789414    3.13981594    0.00000000    n      7.000     0
          4.29213476    5.16869198    0.00000000    c      6.000     0
          5.14485656    7.06044385    0.00000000    h      1.000     0
          7.09279732   -2.55076760    1.81243401    h      1.000     0
          7.09279732   -2.55076760   -1.81243401    h      1.000     0
          3.54209545   -7.98579840    0.00000000    h      1.000     0
         -8.68695201    0.92535456    0.00000000    h      1.000     0
         -5.75542820   -4.86715886   -1.81243401    h      1.000     0
         -5.75542820   -4.86715886    1.81243401    h      1.000     0
         -1.33736912    7.41792646   -1.81243401    h      1.000     0
         -1.33736912    7.41792646    1.81243401    h      1.000     0
 
       center of nuclear mass  :    0.00000000    0.00000000    0.00000000
       center of nuclear charge:    0.00000000    0.00000000    0.00000000
 
        ***************  Stationary point options ******************
        ************************************************************
           Maximum allowed trust radius:           3.000000E-01
           Minimum allowed trust radius:           1.000000E-03
           Initial trust radius:                   1.500000E-01
           GDIIS used if gradient norm <           1.000000E-02
           Number of previous steps for GDIIS:       5
           Hessian update method:                  Powell
           Initial index of transition vector:       1
                        *** Convergence criteria ***                
           Threshold for energy change:            1.000000E-06
           Threshold for max displacement element: 1.000000E-03
           Threshold for max gradient element :    1.000000E-03
           Threshold for RMS of displacement:      5.000000E-04
           Threshold for RMS of gradient:          5.000000E-04
        ************************************************************
 
     Number of symmetry restricted degrees of freedom:    19
     Constituted by:     0 translational degrees of freedom
                         1 rotational degrees of freedom
                      18 internal degrees of freedom

  *************************************************************************
   ATOM                      CARTESIAN COORDINATES
    1 c      -0.87931595369303     -2.44909772501663      0.00000000000000
    2 c      -2.57160703674664     -0.43955242289063      0.00000000000000
    3 c       1.66646708289161     -2.00730081092810      0.00000000000000
    4 c       2.56063882306159      0.46303890865720      0.00000000000000
    5 c       0.90513995385504      2.44685323381873      0.00000000000000
    6 c      -1.68132286936855      1.98605881635942      0.00000000000000
    7 c       3.50986565525539     -3.83850408611452      0.00000000000000
    8 c       2.33015117554589     -6.30144372820719      0.00000000000000
    9 n      -0.27478670541481     -6.75557641009383      0.00000000000000
   10 c      -1.94737562542483     -4.79964399794266      0.00000000000000
   11 c      -5.02009652438596     -4.15675527310601      0.00000000000000
   12 c      -5.07917487873325     -1.12038077826443      0.00000000000000
   13 c      -6.62228593691850      1.13275175142268      0.00000000000000
   14 n      -5.71310743564073      3.61576047255839      0.00000000000000
   15 c      -3.18292581862743      4.08629876129984      0.00000000000000
   16 c      -1.08980740163174      6.42590875612123      0.00000000000000
   17 c       1.56930922347785      4.95888486437895      0.00000000000000
   18 c       6.10990392601771     -2.26915348301522      0.00000000000000
   19 c       5.13030144405225      0.71334523664282      0.00000000000000
   20 n       5.98789414105554      3.13981593753546      0.00000000000000
   21 c       4.29213476137261      5.16869197678451      0.00000000000000
   22 h       5.14485656209197      7.06044384658172      0.00000000000000
   23 h       7.09279731908241     -2.55076759683031      1.81243401483089
   24 h       7.09279731908241     -2.55076759683031     -1.81243401483089
   25 h       3.54209545208731     -7.98579840488958      0.00000000000000
   26 h      -8.68695201417928      0.92535455830786      0.00000000000000
   27 h      -5.75542819754644     -4.86715886380437     -1.81243401483089
   28 h      -5.75542819754644     -4.86715886380437      1.81243401483089
   29 h      -1.33736912153597      7.41792646063470     -1.81243401483089
   30 h      -1.33736912153597      7.41792646063470      1.81243401483089
  *************************************************************************
   ATOM                      CARTESIAN GRADIENTS  
    1 c      -0.00404580229638     -0.00296448961058      0.00000000000000
    2 c       0.00051180893109     -0.00218731310968      0.00000000000000
    3 c       0.00163836425347      0.00153689609105      0.00000000000000
    4 c       0.00459022446020     -0.00202152276206      0.00000000000000
    5 c      -0.00215017318457      0.00065041701863      0.00000000000000
    6 c      -0.00054442216382      0.00498601237264      0.00000000000000
    7 c       0.00187674479921      0.00620506214570      0.00000000000000
    8 c       0.00054866450426     -0.00986005412789      0.00000000000000
    9 n      -0.00101157345933      0.00475199869092      0.00000000000000
   10 c      -0.00409731634547     -0.00048694092052      0.00000000000000
   11 c      -0.02799276409132     -0.00824569656000      0.00000000000000
   12 c       0.00443536905063     -0.00472783974539      0.00000000000000
   13 c      -0.00881338960957      0.00445486966510      0.00000000000000
   14 n       0.00462113831476     -0.00149995103189      0.00000000000000
   15 c       0.00162695496542      0.00379185050278      0.00000000000000
   16 c       0.00685539935280      0.02836529310523      0.00000000000000
   17 c      -0.00631211384984     -0.00147722240031      0.00000000000000
   18 c       0.02113736473852     -0.02011959654523      0.00000000000000
   19 c       0.00247036138005     -0.00330490958226      0.00000000000000
   20 n      -0.00360956485543     -0.00325204765904      0.00000000000000
   21 c       0.00826472510531      0.00540518446279      0.00000000000000
   22 h      -0.00706472972403      0.00243894262170      0.00000000000000
   23 h      -0.01389558396037      0.00719258515833      0.00752156457990
   24 h      -0.01389558396037      0.00719258515833     -0.00752156457990
   25 h       0.00564455113078      0.00489876410103      0.00000000000000
   26 h       0.00142017859325     -0.00733770672273      0.00000000000000
   27 h       0.01317675344618      0.00843763613094     -0.00752156457990
   28 h       0.01317675344618      0.00843763613094      0.00752156457990
   29 h       0.00071883051419     -0.01563022128927     -0.00752156457990
   30 h       0.00071883051419     -0.01563022128927      0.00752156457990
  *************************************************************************

  norm of actual CARTESIAN gradient:  7.18460E-02
  norm of actual INTERNAL  gradient:  6.27206E-02

  ENERGY =    -854.9953368249 a.u.; # of cycle =    4

  Approximate Hessian read from $hessapprox data section

  Hessian updated according to Powell formula
  Number of zero Hessian eigenvalues:   0

   5 first eigenvalues: 
  0.10155582  0.11639211  0.12221295  0.15099471  0.16388171

  Eigenvalue of transition vector:  0.10155582

                  #######################################
                   WARNING: HESSIAN HAS WRONG INERTIA!!! 
                  TRANSITION MODE HAS POSITIVE EIGENVALUE
                                0.10E+00
                  #######################################

  Largest and next-largest overlaps:   0.93047583  0.24729403

  Old transition vector    1 has overlap 0.93047583 with the new    1

        ***************  Trust radius update info  *****************
                Actual energy change:        8.80567E-03
                Predicted energy change:     9.05755E-03
                Actual step radius:          3.00000E-01
                Actual trust radius:         0.300000
                Energy change ratio:         0.972191
                New trust radius:            0.300000
        ************************************************************


  Results of the TRO shift search
  Final shift: -2.69899E-01 residual -4.30211E-16
  Final step radius: 3.00000E-01

  Transforming internal coordinate displacements to Cartesian space
      Iteration   1 residual norm     3.000000E-01
      Iteration   2 residual norm     6.695258E-03
      Iteration   3 residual norm     4.952485E-06
      Iteration   4 residual norm     4.834748E-12
      Transformation converged
      Residual norm:    4.834748E-12 after    4 iterations

      ****************************************************************** 
                          CONVERGENCE INFORMATION

                               Converged?     Value      Criterion
             Energy change         no       0.0088057   0.0000010
             RMS of displacement   no       0.0707107   0.0005000
             RMS of gradient       no       0.0147834   0.0005000
             MAX displacement      no       0.2123744   0.0010000
             MAX gradient          no       0.0540519   0.0010000
      ****************************************************************** 


    ------------------------------------------------------------------------
         total  cpu-time :   0.04 seconds
         total wall-time :   0.05 seconds
    ------------------------------------------------------------------------

   ****  statpt : all done  ****


    2018-03-19 13:39:04.469 


 statpt (c-3-37.gp.local) : TURBOMOLE V7.2 ( 21454 ) 2 Oct 2017 at 16:43:05
 Copyright (C) 2017 TURBOMOLE GmbH, Karlsruhe


    2018-03-19 13:39:13.297 



                           this is S T A T P T   


                     hessian and coordinate update for
                          stationary point search 

                     by barbara unterreiner, marek sierka,
                           and reinhart ahlrichs

                          quantum chemistry group
                          universitaet  karlsruhe
                                  germany




              +--------------------------------------------------+
              | Atomic coordinate, charge and isotop information |
              +--------------------------------------------------+

                    atomic coordinates            atom    charge  isotop
         -0.86899443   -2.46529675    0.00000000    c      6.000     0
         -2.56606462   -0.44571432    0.00000000    c      6.000     0
          1.66903224   -1.99941999    0.00000000    c      6.000     0
          2.56950683    0.48007712    0.00000000    c      6.000     0
          0.89703239    2.44513431    0.00000000    c      6.000     0
         -1.70051240    1.98521963    0.00000000    c      6.000     0
          3.51785513   -3.84456645    0.00000000    c      6.000     0
          2.34677025   -6.30695254    0.00000000    c      6.000     0
         -0.24301667   -6.77017796    0.00000000    n      7.000     0
         -1.90642018   -4.83826434    0.00000000    c      6.000     0
         -5.09067254   -4.13092666    0.00000000    c      6.000     0
         -5.08841978   -1.12426869    0.00000000    c      6.000     0
         -6.63536624    1.12111362    0.00000000    c      6.000     0
         -5.74163776    3.59554759    0.00000000    n      7.000     0
         -3.23684974    4.07014048    0.00000000    c      6.000     0
         -1.03215116    6.47411508    0.00000000    c      6.000     0
          1.57056465    4.96883514    0.00000000    c      6.000     0
          6.12282370   -2.34318841    0.00000000    c      6.000     0
          5.14326992    0.76812386    0.00000000    c      6.000     0
          5.98465444    3.17463037    0.00000000    n      7.000     0
          4.28859599    5.18583892    0.00000000    c      6.000     0
          5.13696555    7.08138096    0.00000000    h      1.000     0
          7.04022049   -2.55932030    1.85058108    h      1.000     0
          7.04022049   -2.55932030   -1.85058108    h      1.000     0
          3.56417303   -7.98943314    0.00000000    h      1.000     0
         -8.70113858    0.90805219    0.00000000    h      1.000     0
         -5.73654664   -4.81734964   -1.85058108    h      1.000     0
         -5.73654664   -4.81734964    1.85058108    h      1.000     0
         -1.30367384    7.37666994   -1.85058108    h      1.000     0
         -1.30367384    7.37666994    1.85058108    h      1.000     0
 
       center of nuclear mass  :   -0.00000000    0.00000000    0.00000000
       center of nuclear charge:   -0.00000000    0.00000000    0.00000000
 
        ***************  Stationary point options ******************
        ************************************************************
           Maximum allowed trust radius:           3.000000E-01
           Minimum allowed trust radius:           1.000000E-03
           Initial trust radius:                   1.500000E-01
           GDIIS used if gradient norm <           1.000000E-02
           Number of previous steps for GDIIS:       5
           Hessian update method:                  Powell
           Initial index of transition vector:       1
                        *** Convergence criteria ***                
           Threshold for energy change:            1.000000E-06
           Threshold for max displacement element: 1.000000E-03
           Threshold for max gradient element :    1.000000E-03
           Threshold for RMS of displacement:      5.000000E-04
           Threshold for RMS of gradient:          5.000000E-04
        ************************************************************
 
     Number of symmetry restricted degrees of freedom:    19
     Constituted by:     0 translational degrees of freedom
                         1 rotational degrees of freedom
                      18 internal degrees of freedom

  *************************************************************************
   ATOM                      CARTESIAN COORDINATES
    1 c      -0.86899442997324     -2.46529674806236      0.00000000000000
    2 c      -2.56606462317418     -0.44571432150080      0.00000000000000
    3 c       1.66903223683733     -1.99941999067098      0.00000000000000
    4 c       2.56950682667579      0.48007712192717      0.00000000000000
    5 c       0.89703238633685      2.44513431217179      0.00000000000000
    6 c      -1.70051239670254      1.98521962613518      0.00000000000000
    7 c       3.51785513239652     -3.84456645097476      0.00000000000000
    8 c       2.34677024736986     -6.30695253686943      0.00000000000000
    9 n      -0.24301667087706     -6.77017795812769      0.00000000000000
   10 c      -1.90642018152741     -4.83826433728127      0.00000000000000
   11 c      -5.09067254287434     -4.13092666325014      0.00000000000000
   12 c      -5.08841977927980     -1.12426868600148      0.00000000000000
   13 c      -6.63536624107658      1.12111361736692      0.00000000000000
   14 n      -5.74163776444151      3.59554758958652      0.00000000000000
   15 c      -3.23684973554615      4.07014047613071      0.00000000000000
   16 c      -1.03215116010793      6.47411507610220      0.00000000000000
   17 c       1.57056464688326      4.96883513697625      0.00000000000000
   18 c       6.12282370298228     -2.34318841285205      0.00000000000000
   19 c       5.14326991707355      0.76812386115056      0.00000000000000
   20 n       5.98465443531857      3.17463036854119      0.00000000000000
   21 c       4.28859599370671      5.18583891950251      0.00000000000000
   22 h       5.13696555041957      7.08138095546103      0.00000000000000
   23 h       7.04022048772572     -2.55932030453442      1.85058107737254
   24 h       7.04022048772572     -2.55932030453442     -1.85058107737254
   25 h       3.56417302609479     -7.98943314275938      0.00000000000000
   26 h      -8.70113857651437      0.90805218729835      0.00000000000000
   27 h      -5.73654664401100     -4.81734963834693     -1.85058107737254
   28 h      -5.73654664401100     -4.81734963834693      1.85058107737254
   29 h      -1.30367384371472      7.37666994288137     -1.85058107737254
   30 h      -1.30367384371472      7.37666994288137      1.85058107737254
  *************************************************************************
   ATOM                      CARTESIAN GRADIENTS  
    1 c       0.00058109896394     -0.00576906173104      0.00000000000000
    2 c       0.00606930147316      0.00495576633057      0.00000000000000
    3 c      -0.00732647027407      0.00277828609369      0.00000000000000
    4 c       0.00470560453311      0.00338777733041      0.00000000000000
    5 c       0.00125716880091     -0.00773405242427      0.00000000000000
    6 c      -0.00528670349705      0.00238128440064      0.00000000000000
    7 c       0.00629155943478      0.00380670885006      0.00000000000000
    8 c      -0.00488205073421     -0.00891305729141      0.00000000000000
    9 n       0.00030823929580      0.00857906454628      0.00000000000000
   10 c       0.00636485912953     -0.01199989732668      0.00000000000000
   11 c      -0.04237680526155     -0.00913403792034      0.00000000000000
   12 c       0.00015092685157     -0.00735200472497      0.00000000000000
   13 c      -0.00527790867264      0.00868450860410      0.00000000000000
   14 n       0.00727556818988     -0.00455647533375      0.00000000000000
   15 c      -0.01357464549248      0.00048781896566      0.00000000000000
   16 c       0.01327809375263      0.04126640884790      0.00000000000000
   17 c      -0.00644248628635      0.00354529587491      0.00000000000000
   18 c       0.02909871150892     -0.03213237092756      0.00000000000000
   19 c       0.00720978636295      0.01151207836103      0.00000000000000
   20 n      -0.00758380748569     -0.00402258921253      0.00000000000000
   21 c       0.01015995940686      0.00022854868732      0.00000000000000
   22 h      -0.00621805590812      0.00247501552333      0.00000000000000
   23 h      -0.01844793554951      0.00924281296796      0.00862653928769
   24 h      -0.01844793554951      0.00924281296796     -0.00862653928769
   25 h       0.00525245427203      0.00414748661692      0.00000000000000
   26 h       0.00096560163609     -0.00662250214025      0.00000000000000
   27 h       0.01722847860744      0.01135497434927     -0.00862653928769
   28 h       0.01722847860744      0.01135497434927      0.00862653928769
   29 h       0.00121945694207     -0.02059778731724     -0.00862653928769
   30 h       0.00121945694207     -0.02059778731724      0.00862653928769
  *************************************************************************

  norm of actual CARTESIAN gradient:  1.01513E-01
  norm of actual INTERNAL  gradient:  7.81602E-02

  ENERGY =    -854.9808005654 a.u.; # of cycle =    5

  Approximate Hessian read from $hessapprox data section

  Hessian updated according to Powell formula
  Number of zero Hessian eigenvalues:   0

   5 first eigenvalues: 
  0.07172601  0.11629207  0.12326148  0.15100108  0.16385192

  Eigenvalue of transition vector:  0.07172601

                  #######################################
                   WARNING: HESSIAN HAS WRONG INERTIA!!! 
                  TRANSITION MODE HAS POSITIVE EIGENVALUE
                                0.72E-01
                  #######################################

  Largest and next-largest overlaps:   0.91368741  0.29848092

  Old transition vector    1 has overlap 0.91368741 with the new    1

        ***************  Trust radius update info  *****************
                Actual energy change:        1.45363E-02
                Predicted energy change:     1.56189E-02
                Actual step radius:          3.00000E-01
                Actual trust radius:         0.300000
                Energy change ratio:         0.930682
                New trust radius:            0.300000
        ************************************************************


  Results of the TRO shift search
  Final shift: -2.71138E-01 residual  5.55112E-17
  Final step radius: 3.00000E-01

  Transforming internal coordinate displacements to Cartesian space
      Iteration   1 residual norm     3.000000E-01
      Iteration   2 residual norm     2.941273E-03
      Iteration   3 residual norm     6.067300E-07
      Iteration   4 residual norm     2.838488E-14
      Transformation converged
      Residual norm:    2.838488E-14 after    4 iterations

      ****************************************************************** 
                          CONVERGENCE INFORMATION

                               Converged?     Value      Criterion
             Energy change         no       0.0145363   0.0000010
             RMS of displacement   no       0.0707107   0.0005000
             RMS of gradient       no       0.0184225   0.0005000
             MAX displacement      no       0.2562386   0.0010000
             MAX gradient          no       0.0695822   0.0010000
      ****************************************************************** 


    ------------------------------------------------------------------------
         total  cpu-time :   0.04 seconds
         total wall-time :   0.05 seconds
    ------------------------------------------------------------------------

   ****  statpt : all done  ****


    2018-03-19 13:39:13.337 


 statpt (c-3-37.gp.local) : TURBOMOLE V7.2 ( 21454 ) 2 Oct 2017 at 16:43:05
 Copyright (C) 2017 TURBOMOLE GmbH, Karlsruhe


    2018-03-19 13:39:22.510 



                           this is S T A T P T   


                     hessian and coordinate update for
                          stationary point search 

                     by barbara unterreiner, marek sierka,
                           and reinhart ahlrichs

                          quantum chemistry group
                          universitaet  karlsruhe
                                  germany




              +--------------------------------------------------+
              | Atomic coordinate, charge and isotop information |
              +--------------------------------------------------+

                    atomic coordinates            atom    charge  isotop
         -0.86610791   -2.47320531    0.00000000    c      6.000     0
         -2.56651984   -0.45134044    0.00000000    c      6.000     0
          1.67413221   -1.99700116    0.00000000    c      6.000     0
          2.57491259    0.48653120    0.00000000    c      6.000     0
          0.89238763    2.44834160    0.00000000    c      6.000     0
         -1.70880467    1.98667411    0.00000000    c      6.000     0
          3.53161951   -3.84897142    0.00000000    c      6.000     0
          2.39630013   -6.30994909    0.00000000    c      6.000     0
         -0.20319074   -6.79134509    0.00000000    n      7.000     0
         -1.85418060   -4.87086859    0.00000000    c      6.000     0
         -5.17315234   -4.08906268    0.00000000    c      6.000     0
         -5.09911678   -1.13398651    0.00000000    c      6.000     0
         -6.66272628    1.07971776    0.00000000    c      6.000     0
         -5.77988201    3.57164089    0.00000000    n      7.000     0
         -3.29120563    4.04120180    0.00000000    c      6.000     0
         -0.95465599    6.52461268    0.00000000    c      6.000     0
          1.56749727    4.98295792    0.00000000    c      6.000     0
          6.12780833   -2.43555000    0.00000000    c      6.000     0
          5.14538624    0.82966679    0.00000000    c      6.000     0
          5.98307274    3.21970421    0.00000000    n      7.000     0
          4.26642615    5.23023133    0.00000000    c      6.000     0
          5.12905544    7.12118668    0.00000000    h      1.000     0
          7.04933581   -2.61000862    1.85046887    h      1.000     0
          7.04933581   -2.61000862   -1.85046887    h      1.000     0
          3.60260085   -8.00248565    0.00000000    h      1.000     0
         -8.73165629    0.88129897    0.00000000    h      1.000     0
         -5.78500167   -4.79989958   -1.85046887    h      1.000     0
         -5.78500167   -4.79989958    1.85046887    h      1.000     0
         -1.26433413    7.40990820   -1.85046887    h      1.000     0
         -1.26433413    7.40990820    1.85046887    h      1.000     0
 
       center of nuclear mass  :   -0.00000000    0.00000000    0.00000000
       center of nuclear charge:   -0.00000000    0.00000000    0.00000000
 
        ***************  Stationary point options ******************
        ************************************************************
           Maximum allowed trust radius:           3.000000E-01
           Minimum allowed trust radius:           1.000000E-03
           Initial trust radius:                   1.500000E-01
           GDIIS used if gradient norm <           1.000000E-02
           Number of previous steps for GDIIS:       5
           Hessian update method:                  Powell
           Initial index of transition vector:       1
                        *** Convergence criteria ***                
           Threshold for energy change:            1.000000E-06
           Threshold for max displacement element: 1.000000E-03
           Threshold for max gradient element :    1.000000E-03
           Threshold for RMS of displacement:      5.000000E-04
           Threshold for RMS of gradient:          5.000000E-04
        ************************************************************
 
     Number of symmetry restricted degrees of freedom:    19
     Constituted by:     0 translational degrees of freedom
                         1 rotational degrees of freedom
                      18 internal degrees of freedom

  *************************************************************************
   ATOM                      CARTESIAN COORDINATES
    1 c      -0.86610791317192     -2.47320531187691      0.00000000000000
    2 c      -2.56651983957114     -0.45134044241299      0.00000000000000
    3 c       1.67413220867053     -1.99700115917888      0.00000000000000
    4 c       2.57491258544599      0.48653120071284      0.00000000000000
    5 c       0.89238763090061      2.44834160159187      0.00000000000000
    6 c      -1.70880467227405      1.98667411116407      0.00000000000000
    7 c       3.53161951431614     -3.84897141688265      0.00000000000000
    8 c       2.39630013001711     -6.30994909266544      0.00000000000000
    9 n      -0.20319073720230     -6.79134509253045      0.00000000000000
   10 c      -1.85418060353596     -4.87086858910375      0.00000000000000
   11 c      -5.17315234050122     -4.08906267937380      0.00000000000000
   12 c      -5.09911678261865     -1.13398650745731      0.00000000000000
   13 c      -6.66272627584341      1.07971775864594      0.00000000000000
   14 n      -5.77988200739700      3.57164088649612      0.00000000000000
   15 c      -3.29120563489153      4.04120180041837      0.00000000000000
   16 c      -0.95465598775396      6.52461268420791      0.00000000000000
   17 c       1.56749726830249      4.98295792433998      0.00000000000000
   18 c       6.12780832825519     -2.43555000483410      0.00000000000000
   19 c       5.14538623842747      0.82966678868538      0.00000000000000
   20 n       5.98307274459930      3.21970420603435      0.00000000000000
   21 c       4.26642614582629      5.23023133401949      0.00000000000000
   22 h       5.12905543714351      7.12118668030591      0.00000000000000
   23 h       7.04933580526848     -2.61000862220022      1.85046886762418
   24 h       7.04933580526848     -2.61000862220022     -1.85046886762418
   25 h       3.60260085166454     -8.00248564613794      0.00000000000000
   26 h      -8.73165628880806      0.88129896583203      0.00000000000000
   27 h      -5.78500167355606     -4.79989957606963     -1.85046886762418
   28 h      -5.78500167355606     -4.79989957606963      1.85046886762418
   29 h      -1.26433413171243      7.40990819826986     -1.85046886762418
   30 h      -1.26433413171243      7.40990819826986      1.85046886762418
  *************************************************************************
   ATOM                      CARTESIAN GRADIENTS  
    1 c      -0.00247113237770     -0.00568734513895      0.00000000000000
    2 c       0.00724256192959      0.00739412487779      0.00000000000000
    3 c      -0.01002478094771      0.00257518018061      0.00000000000000
    4 c       0.00616095155927      0.00070360915428      0.00000000000000
    5 c       0.00278221901811     -0.00996930505841      0.00000000000000
    6 c      -0.00368981918157      0.00498373598468      0.00000000000000
    7 c       0.00848929693725      0.00453150397498      0.00000000000000
    8 c       0.00053756962514     -0.00496687848254      0.00000000000000
    9 n      -0.00299264936520      0.00669865417813      0.00000000000000
   10 c       0.01555975676645     -0.01432489207696      0.00000000000000
   11 c      -0.04827859194655     -0.00313393641375      0.00000000000000
   12 c      -0.00032025090894     -0.00961769879542      0.00000000000000
   13 c      -0.00457022775596      0.00201789028959      0.00000000000000
   14 n       0.00729752937203     -0.00075761671418      0.00000000000000
   15 c      -0.02018559882834     -0.00631269859797      0.00000000000000
   16 c       0.02142522742513      0.04337745529153      0.00000000000000
   17 c      -0.00816904602831      0.00508619482044      0.00000000000000
   18 c       0.02685336452143     -0.04024351887779      0.00000000000000
   19 c       0.00462584206189      0.02063759067493      0.00000000000000
   20 n      -0.00430488000683     -0.00594103746395      0.00000000000000
   21 c       0.00403265813082      0.00294898819295      0.00000000000000
   22 h      -0.00407121016829      0.00251708027926      0.00000000000000
   23 h      -0.01794893135825      0.00914586130778      0.00800727862777
   24 h      -0.01794893135825      0.00914586130778     -0.00800727862777
   25 h       0.00421546054935      0.00226723129025      0.00000000000000
   26 h      -0.00014425038107     -0.00478431156952      0.00000000000000
   27 h       0.01689501391115      0.01097129987314     -0.00800727862777
   28 h       0.01689501391115      0.01097129987314      0.00800727862777
   29 h       0.00105391744710     -0.02011716118092     -0.00800727862777
   30 h       0.00105391744710     -0.02011716118092      0.00800727862777
  *************************************************************************

  norm of actual CARTESIAN gradient:  1.10467E-01
  norm of actual INTERNAL  gradient:  8.11629E-02

  ENERGY =    -854.9712484637 a.u.; # of cycle =    6

  Approximate Hessian read from $hessapprox data section

  Hessian updated according to Powell formula
  Number of zero Hessian eigenvalues:   0

   5 first eigenvalues: 
  0.04558676  0.11728575  0.11979692  0.15126419  0.16305689

  Eigenvalue of transition vector:  0.04558676

                  #######################################
                   WARNING: HESSIAN HAS WRONG INERTIA!!! 
                  TRANSITION MODE HAS POSITIVE EIGENVALUE
                                0.46E-01
                  #######################################

  Largest and next-largest overlaps:   0.94366902  0.19602397

  Old transition vector    1 has overlap 0.94366902 with the new    1

        ***************  Trust radius update info  *****************
                Actual energy change:        9.55210E-03
                Predicted energy change:     1.11023E-02
                Actual step radius:          3.00000E-01
                Actual trust radius:         0.300000
                Energy change ratio:         0.860370
                New trust radius:            0.300000
        ************************************************************


  Results of the TRO shift search
  Final shift: -2.38942E-01 residual  4.16334E-17
  Final step radius: 3.00000E-01

  Transforming internal coordinate displacements to Cartesian space
      Iteration   1 residual norm     3.000000E-01
      Iteration   2 residual norm     3.365850E-03
      Iteration   3 residual norm     6.588324E-07
      Iteration   4 residual norm     1.485960E-13
      Transformation converged
      Residual norm:    1.485960E-13 after    4 iterations

      ****************************************************************** 
                          CONVERGENCE INFORMATION

                               Converged?     Value      Criterion
             Energy change         no       0.0095521   0.0000010
             RMS of displacement   no       0.0707107   0.0005000
             RMS of gradient       no       0.0191303   0.0005000
             MAX displacement      no       0.2461825   0.0010000
             MAX gradient          no       0.0677049   0.0010000
      ****************************************************************** 


    ------------------------------------------------------------------------
         total  cpu-time :   0.04 seconds
         total wall-time :   0.05 seconds
    ------------------------------------------------------------------------

   ****  statpt : all done  ****


    2018-03-19 13:39:22.549 


 statpt (c-3-37.gp.local) : TURBOMOLE V7.2 ( 21454 ) 2 Oct 2017 at 16:43:05
 Copyright (C) 2017 TURBOMOLE GmbH, Karlsruhe


    2018-03-19 13:39:31.507 



                           this is S T A T P T   


                     hessian and coordinate update for
                          stationary point search 

                     by barbara unterreiner, marek sierka,
                           and reinhart ahlrichs

                          quantum chemistry group
                          universitaet  karlsruhe
                                  germany




              +--------------------------------------------------+
              | Atomic coordinate, charge and isotop information |
              +--------------------------------------------------+

                    atomic coordinates            atom    charge  isotop
         -0.85760939   -2.48203733    0.00000000    c      6.000     0
         -2.56909153   -0.46592072    0.00000000    c      6.000     0
          1.68804494   -1.99193817    0.00000000    c      6.000     0
          2.57831208    0.49830715    0.00000000    c      6.000     0
          0.88104659    2.45785889    0.00000000    c      6.000     0
         -1.72070269    1.98373018    0.00000000    c      6.000     0
          3.54524507   -3.85491188    0.00000000    c      6.000     0
          2.42868379   -6.31767615    0.00000000    c      6.000     0
         -0.15380332   -6.80752349    0.00000000    n      7.000     0
         -1.79648570   -4.90098289    0.00000000    c      6.000     0
         -5.24660756   -4.05661856    0.00000000    c      6.000     0
         -5.11107415   -1.14281635    0.00000000    c      6.000     0
         -6.68560993    1.05553622    0.00000000    c      6.000     0
         -5.81858662    3.53695932    0.00000000    n      7.000     0
         -3.34613283    4.00629370    0.00000000    c      6.000     0
         -0.88983095    6.57200471    0.00000000    c      6.000     0
          1.56582908    4.99772823    0.00000000    c      6.000     0
          6.13643850   -2.51538615    0.00000000    c      6.000     0
          5.14261854    0.89468919    0.00000000    c      6.000     0
          5.97238994    3.27056417    0.00000000    n      7.000     0
          4.25692615    5.26213993    0.00000000    c      6.000     0
          5.12359261    7.15025833    0.00000000    h      1.000     0
          7.11757522   -2.68331490    1.82082553    h      1.000     0
          7.11757522   -2.68331490   -1.82082553    h      1.000     0
          3.63050905   -8.01229053    0.00000000    h      1.000     0
         -8.75410167    0.86203219    0.00000000    h      1.000     0
         -5.88260648   -4.82234350   -1.82082553    h      1.000     0
         -5.88260648   -4.82234350    1.82082553    h      1.000     0
         -1.23496874    7.50565840   -1.82082553    h      1.000     0
         -1.23496874    7.50565840    1.82082553    h      1.000     0
 
       center of nuclear mass  :   -0.00000000    0.00000000    0.00000000
       center of nuclear charge:   -0.00000000    0.00000000    0.00000000
 
        ***************  Stationary point options ******************
        ************************************************************
           Maximum allowed trust radius:           3.000000E-01
           Minimum allowed trust radius:           1.000000E-03
           Initial trust radius:                   1.500000E-01
           GDIIS used if gradient norm <           1.000000E-02
           Number of previous steps for GDIIS:       5
           Hessian update method:                  Powell
           Initial index of transition vector:       1
                        *** Convergence criteria ***                
           Threshold for energy change:            1.000000E-06
           Threshold for max displacement element: 1.000000E-03
           Threshold for max gradient element :    1.000000E-03
           Threshold for RMS of displacement:      5.000000E-04
           Threshold for RMS of gradient:          5.000000E-04
        ************************************************************
 
     Number of symmetry restricted degrees of freedom:    19
     Constituted by:     0 translational degrees of freedom
                         1 rotational degrees of freedom
                      18 internal degrees of freedom

  *************************************************************************
   ATOM                      CARTESIAN COORDINATES
    1 c      -0.85760939034583     -2.48203733263054      0.00000000000000
    2 c      -2.56909153040679     -0.46592071919292      0.00000000000000
    3 c       1.68804494417398     -1.99193817038327      0.00000000000000
    4 c       2.57831207837234      0.49830714775169      0.00000000000000
    5 c       0.88104658623281      2.45785888957619      0.00000000000000
    6 c      -1.72070268802649      1.98373018487885      0.00000000000000
    7 c       3.54524507094297     -3.85491187823304      0.00000000000000
    8 c       2.42868378643948     -6.31767615219427      0.00000000000000
    9 n      -0.15380331610562     -6.80752349207114      0.00000000000000
   10 c      -1.79648570321765     -4.90098288814465      0.00000000000000
   11 c      -5.24660755531759     -4.05661855701221      0.00000000000000
   12 c      -5.11107415137170     -1.14281635496166      0.00000000000000
   13 c      -6.68560993390312      1.05553621928116      0.00000000000000
   14 n      -5.81858662294015      3.53695932496935      0.00000000000000
   15 c      -3.34613283303726      4.00629370059436      0.00000000000000
   16 c      -0.88983094617715      6.57200470509853      0.00000000000000
   17 c       1.56582908042871      4.99772823319471      0.00000000000000
   18 c       6.13643850149474     -2.51538614808631      0.00000000000000
   19 c       5.14261853625490      0.89468918755029      0.00000000000000
   20 n       5.97238993904578      3.27056416710182      0.00000000000000
   21 c       4.25692614746363      5.26213993291311      0.00000000000000
   22 h       5.12359261235500      7.15025833234136      0.00000000000000
   23 h       7.11757521871910     -2.68331490133221      1.82082552968317
   24 h       7.11757521871910     -2.68331490133221     -1.82082552968317
   25 h       3.63050905325148     -8.01229052711239      0.00000000000000
   26 h      -8.75410166560649      0.86203219477103      0.00000000000000
   27 h      -5.88260648026658     -4.82234350209122     -1.82082552968317
   28 h      -5.88260648026658     -4.82234350209122      1.82082552968317
   29 h      -1.23496873845253      7.50565840342344     -1.82082552968317
   30 h      -1.23496873845253      7.50565840342344      1.82082552968317
  *************************************************************************
   ATOM                      CARTESIAN GRADIENTS  
    1 c      -0.00532067315883     -0.00483524285468      0.00000000000000
    2 c       0.00777919338694      0.00626199397760      0.00000000000000
    3 c      -0.00931264255641      0.00360598210524      0.00000000000000
    4 c       0.00684777972503     -0.00219021669343      0.00000000000000
    5 c       0.00153344916947     -0.00986797608284      0.00000000000000
    6 c      -0.00152710656621      0.00702545954812      0.00000000000000
    7 c       0.00936056698074      0.00491139242343      0.00000000000000
    8 c      -0.00206705100662     -0.00356029549374      0.00000000000000
    9 n      -0.00022501714086      0.00679045372010      0.00000000000000
   10 c       0.02387189467367     -0.01561704384195      0.00000000000000
   11 c      -0.04634716989698      0.00524489101348      0.00000000000000
   12 c      -0.00042689288372     -0.01056218501086      0.00000000000000
   13 c      -0.00204978083925      0.00357026642952      0.00000000000000
   14 n       0.00599321399526     -0.00320035629977      0.00000000000000
   15 c      -0.02546070403598     -0.01286514530289      0.00000000000000
   16 c       0.02771579380624      0.03751538101756      0.00000000000000
   17 c      -0.00893367409702      0.00565079258743      0.00000000000000
   18 c       0.01863137609074     -0.04276027203104      0.00000000000000
   19 c       0.00158880936231      0.02848218914484      0.00000000000000
   20 n      -0.00576819685440     -0.00359009742032      0.00000000000000
   21 c       0.00411683184587     -0.00000997093578      0.00000000000000
   22 h      -0.00260933320423      0.00146930616793      0.00000000000000
   23 h      -0.01326675332135      0.00755802634489      0.00631758565424
   24 h      -0.01326675332135      0.00755802634489     -0.00631758565424
   25 h       0.00257712306948      0.00152509575784      0.00000000000000
   26 h       0.00003221013475     -0.00299440192577      0.00000000000000
   27 h       0.01317881947782      0.00771033222959     -0.00631758565424
   28 h       0.01317881947782      0.00771033222959      0.00631758565424
[...]
        ************************************************************
           Maximum allowed trust radius:           3.000000E-01
           Minimum allowed trust radius:           1.000000E-03
           Initial trust radius:                   1.500000E-01
           GDIIS used if gradient norm <           1.000000E-02
           Number of previous steps for GDIIS:       5
           Hessian update method:                  Powell
           Initial index of transition vector:       1
                        *** Convergence criteria ***                
           Threshold for energy change:            1.000000E-06
           Threshold for max displacement element: 1.000000E-03
           Threshold for max gradient element :    1.000000E-03
           Threshold for RMS of displacement:      5.000000E-04
           Threshold for RMS of gradient:          5.000000E-04
        ************************************************************
 
     Number of symmetry restricted degrees of freedom:    19
     Constituted by:     0 translational degrees of freedom
                         1 rotational degrees of freedom
                      18 internal degrees of freedom

  *************************************************************************
   ATOM                      CARTESIAN COORDINATES
    1 c      -0.77938953953244     -2.53696460606553      0.00000000000000
    2 c      -2.59766600853433     -0.59689913842090      0.00000000000000
    3 c       1.81576282163668     -1.95119518472765      0.00000000000000
    4 c       2.58677056712099      0.59351116235379      0.00000000000000
    5 c       0.78190318689765      2.54809432314853      0.00000000000000
    6 c      -1.80738102758847      1.94345344371172      0.00000000000000
    7 c       3.77675472258480     -3.86212633756173      0.00000000000000
    8 c       3.61726231532845     -6.35450845182170      0.00000000000000
    9 n      -0.43914102848776     -7.24203416472240      0.00000000000000
   10 c      -1.40389289885430     -5.19540024319235      0.00000000000000
   11 c      -6.27335420013406     -3.88487141135662      0.00000000000000
   12 c      -5.23307688224588     -1.33970236484037      0.00000000000000
   13 c      -7.31179690550477      0.04461316868428      0.00000000000000
   14 n      -6.05221504748048      4.00132436887576      0.00000000000000
   15 c      -3.79740214400533      3.81350703619655      0.00000000000000
   16 c      -0.22772023260371      7.37531980993225      0.00000000000000
   17 c       1.45632215966100      5.20182870240218      0.00000000000000
   18 c       6.50107443273779     -3.49044839857561      0.00000000000000
   19 c       5.20129504285951      1.38189320699582      0.00000000000000
   20 n       6.49135607596824      3.24070979584673      0.00000000000000
   21 c       3.69453459017628      6.30989528313743      0.00000000000000
   22 h       4.74340711871818      8.07374962502700      0.00000000000000
   23 h       7.56883413747369     -3.61906858300855      1.77465455543699
   24 h       7.56883413747369     -3.61906858300855     -1.77465455543699
   25 h       4.62036871970937     -8.14478587781544      0.00000000000000
   26 h      -9.36377583842759      0.07103625278845      0.00000000000000
   27 h      -6.91862239966036     -4.74526834857883     -1.77465455543699
   28 h      -6.91862239966036     -4.74526834857883      1.77465455543699
   29 h      -0.65021173781329      8.36433693158735     -1.77465455543699
   30 h      -0.65021173781329      8.36433693158735      1.77465455543699
  *************************************************************************
   ATOM                      CARTESIAN GRADIENTS  
    1 c       0.00000036437215      0.00001303620331      0.00000000000000
    2 c      -0.00006800987396     -0.00001723833069      0.00000000000000
    3 c       0.00004893376928     -0.00005027911322      0.00000000000000
    4 c      -0.00001147186931     -0.00000620254611      0.00000000000000
    5 c       0.00001907610468      0.00006751744390      0.00000000000000
    6 c       0.00001110749716     -0.00000683365720      0.00000000000000
    7 c      -0.00002823425221      0.00009442914814      0.00000000000000
    8 c       0.00006654842389     -0.00002971349598      0.00000000000000
    9 n      -0.00012152024503      0.00006861774201      0.00000000000000
   10 c      -0.00011310888471     -0.00006663952189      0.00000000000000
   11 c      -0.00006328389888      0.00010269461585      0.00000000000000
   12 c       0.00009589516724     -0.00002276299440      0.00000000000000
   13 c      -0.00005900685430     -0.00004277587768      0.00000000000000
   14 n       0.00012018483025      0.00007093074827      0.00000000000000
   15 c      -0.00000115707650      0.00013127492850      0.00000000000000
   16 c       0.00012057809560      0.00000345815615      0.00000000000000
   17 c      -0.00006766091504     -0.00007166615373      0.00000000000000
   18 c      -0.00005729419672     -0.00010615277200      0.00000000000000
   19 c       0.00011426596121     -0.00006463540661      0.00000000000000
   20 n       0.00000133541479     -0.00013954849028      0.00000000000000
   21 c      -0.00000754156959      0.00007248937366      0.00000000000000
   22 h       0.00002944390251      0.00001722480471      0.00000000000000
   23 h      -0.00004040723486      0.00002400153845     -0.00003834503116
   24 h      -0.00004040723486      0.00002400153845      0.00003834503116
   25 h       0.00000019516720     -0.00003411156991      0.00000000000000
   26 h      -0.00002963906971      0.00001688676520      0.00000000000000
   27 h       0.00004098955945      0.00002299292266      0.00003834503116
   28 h       0.00004098955945      0.00002299292266     -0.00003834503116
   29 h      -0.00000058232460     -0.00004699446111      0.00003834503116
   30 h      -0.00000058232460     -0.00004699446111     -0.00003834503116
  *************************************************************************

  norm of actual CARTESIAN gradient:  4.89595E-04
  norm of actual INTERNAL  gradient:  4.47275E-04

  ENERGY =    -854.6159820854 a.u.; # of cycle =   67

  Approximate Hessian read from $hessapprox data section

  Hessian updated according to Powell formula
  Number of zero Hessian eigenvalues:   0

   5 first eigenvalues: 
 -0.16444866  0.01724876  0.09507506  0.13657146  0.18519866

  Eigenvalue of transition vector: -0.16444866

  Largest and next-largest overlaps:   0.99857563  0.05098221

  Old transition vector    1 has overlap 0.99857563 with the new    1

        ***************  Trust radius update info  *****************
                Actual energy change:       -5.52200E-07
                Predicted energy change:    -2.57060E-06
                Actual step radius:          8.76266E-03
                Actual trust radius:         0.008763
                Energy change ratio:         0.214814
                New trust radius:            0.003651
        ************************************************************


  Results of the TRO shift search
  Final shift: -5.56209E-02 residual -4.06576E-20
  Final step radius: 3.65111E-03

  Transforming internal coordinate displacements to Cartesian space
      Iteration   1 residual norm     3.651110E-03
      Iteration   2 residual norm     1.229660E-06
      Iteration   3 residual norm     1.621522E-13
      Transformation converged
      Residual norm:    1.621522E-13 after    3 iterations

      ****************************************************************** 
                          CONVERGENCE INFORMATION

                               Converged?     Value      Criterion
             Energy change         yes      0.0000006   0.0000010
             RMS of displacement   no       0.0008606   0.0005000
             RMS of gradient       yes      0.0001054   0.0005000
             MAX displacement      no       0.0021591   0.0010000
             MAX gradient          yes      0.0002675   0.0010000
      ****************************************************************** 


    ------------------------------------------------------------------------
         total  cpu-time :   0.05 seconds
         total wall-time :   0.06 seconds
    ------------------------------------------------------------------------

   ****  statpt : all done  ****


    2018-03-19 17:18:27.886 


 statpt (c-3-37.gp.local) : TURBOMOLE V7.2 ( 21454 ) 2 Oct 2017 at 16:43:05
 Copyright (C) 2017 TURBOMOLE GmbH, Karlsruhe


    2018-03-19 17:18:35.073 



                           this is S T A T P T   


                     hessian and coordinate update for
                          stationary point search 

                     by barbara unterreiner, marek sierka,
                           and reinhart ahlrichs

                          quantum chemistry group
                          universitaet  karlsruhe
                                  germany




              +--------------------------------------------------+
              | Atomic coordinate, charge and isotop information |
              +--------------------------------------------------+

                    atomic coordinates            atom    charge  isotop
         -0.77909022   -2.53708843    0.00000000    c      6.000     0
         -2.59764447   -0.59725421    0.00000000    c      6.000     0
          1.81605955   -1.95099899    0.00000000    c      6.000     0
          2.58672814    0.59383229    0.00000000    c      6.000     0
          0.78158491    2.54825320    0.00000000    c      6.000     0
         -1.80763792    1.94325614    0.00000000    c      6.000     0
          3.77704882   -3.86206565    0.00000000    c      6.000     0
          3.61684855   -6.35440085    0.00000000    c      6.000     0
         -0.43828385   -7.24218174    0.00000000    n      7.000     0
         -1.40299378   -5.19558777    0.00000000    c      6.000     0
         -6.27380848   -3.88529120    0.00000000    c      6.000     0
         -5.23317137   -1.33998740    0.00000000    c      6.000     0
         -7.31149684    0.04491770    0.00000000    c      6.000     0
         -6.05277144    4.00065582    0.00000000    n      7.000     0
         -3.79801411    3.81282214    0.00000000    c      6.000     0
         -0.22785664    7.37592313    0.00000000    c      6.000     0
          1.45612256    5.20205305    0.00000000    c      6.000     0
          6.50166512   -3.49063192    0.00000000    c      6.000     0
          5.20100789    1.38276563    0.00000000    c      6.000     0
          6.49105529    3.24152592    0.00000000    n      7.000     0
          3.69464829    6.30948315    0.00000000    c      6.000     0
          4.74289336    8.07374265    0.00000000    h      1.000     0
          7.56943566   -3.62048628    1.77472471    h      1.000     0
          7.56943566   -3.62048628   -1.77472471    h      1.000     0
          4.62061956   -8.14433746    0.00000000    h      1.000     0
         -9.36351292    0.07059481    0.00000000    h      1.000     0
         -6.92015092   -4.74508044   -1.77472471    h      1.000     0
         -6.92015092   -4.74508044    1.77472471    h      1.000     0
         -0.64928474    8.36556671   -1.77472471    h      1.000     0
         -0.64928474    8.36556671    1.77472471    h      1.000     0
 
       center of nuclear mass  :   -0.00000000    0.00000000    0.00000000
       center of nuclear charge:   -0.00000000    0.00000000    0.00000000
 
        ***************  Stationary point options ******************
        ************************************************************
           Maximum allowed trust radius:           3.000000E-01
           Minimum allowed trust radius:           1.000000E-03
           Initial trust radius:                   1.500000E-01
           GDIIS used if gradient norm <           1.000000E-02
           Number of previous steps for GDIIS:       5
           Hessian update method:                  Powell
           Initial index of transition vector:       1
                        *** Convergence criteria ***                
           Threshold for energy change:            1.000000E-06
           Threshold for max displacement element: 1.000000E-03
           Threshold for max gradient element :    1.000000E-03
           Threshold for RMS of displacement:      5.000000E-04
           Threshold for RMS of gradient:          5.000000E-04
        ************************************************************
 
     Number of symmetry restricted degrees of freedom:    19
     Constituted by:     0 translational degrees of freedom
                         1 rotational degrees of freedom
                      18 internal degrees of freedom

  *************************************************************************
   ATOM                      CARTESIAN COORDINATES
    1 c      -0.77909022048677     -2.53708843244655      0.00000000000000
    2 c      -2.59764446755324     -0.59725421181648      0.00000000000000
    3 c       1.81605955372692     -1.95099899299301      0.00000000000000
    4 c       2.58672814438978      0.59383229344168      0.00000000000000
    5 c       0.78158491382632      2.54825320480947      0.00000000000000
    6 c      -1.80763792390292      1.94325613900484      0.00000000000000
    7 c       3.77704881630890     -3.86206565070929      0.00000000000000
    8 c       3.61684855090593     -6.35440085429643      0.00000000000000
    9 n      -0.43828385200603     -7.24218173626054      0.00000000000000
   10 c      -1.40299378233548     -5.19558777182679      0.00000000000000
   11 c      -6.27380848304633     -3.88529120103611      0.00000000000000
   12 c      -5.23317137275204     -1.33998740090275      0.00000000000000
   13 c      -7.31149684110324      0.04491770042273      0.00000000000000
   14 n      -6.05277143642225      4.00065581803612      0.00000000000000
   15 c      -3.79801410682610      3.81282214276751      0.00000000000000
   16 c      -0.22785663967426      7.37592312531453      0.00000000000000
   17 c       1.45612255644306      5.20205305161212      0.00000000000000
   18 c       6.50166512272061     -3.49063192427839      0.00000000000000
   19 c       5.20100788916147      1.38276562905930      0.00000000000000
   20 n       6.49105528842828      3.24152591822451      0.00000000000000
   21 c       3.69464829019727      6.30948315387371      0.00000000000000
   22 h       4.74289335837311      8.07374264801239      0.00000000000000
   23 h       7.56943566273374     -3.62048627559120      1.77472471157127
   24 h       7.56943566273374     -3.62048627559120     -1.77472471157127
   25 h       4.62061955761001     -8.14433745979785      0.00000000000000
   26 h      -9.36351291598316      0.07059481178546      0.00000000000000
   27 h      -6.92015092008172     -4.74508043844373     -1.77472471157127
   28 h      -6.92015092008172     -4.74508043844373      1.77472471157127
   29 h      -0.64928474265198      8.36556671403490     -1.77472471157127
   30 h      -0.64928474265198      8.36556671403490      1.77472471157127
  *************************************************************************
   ATOM                      CARTESIAN GRADIENTS  
    1 c      -0.00002207567185      0.00001312623068      0.00000000000000
    2 c      -0.00005009863563     -0.00002570006229      0.00000000000000
    3 c       0.00004730622465     -0.00003053666001      0.00000000000000
    4 c      -0.00000032981330     -0.00002568120796      0.00000000000000
    5 c       0.00000279241099      0.00005623672230      0.00000000000000
    6 c       0.00002240548515      0.00001255497728      0.00000000000000
    7 c      -0.00011169116817      0.00003015005880      0.00000000000000
    8 c       0.00010863569376      0.00002058706133      0.00000000000000
    9 n      -0.00018857830151      0.00011410994772      0.00000000000000
   10 c      -0.00001956943953     -0.00012324491051      0.00000000000000
   11 c      -0.00007492550179      0.00007460821401      0.00000000000000
   12 c       0.00008195630093      0.00008165235961      0.00000000000000
   13 c      -0.00003648892877     -0.00010437480122      0.00000000000000
   14 n       0.00019311126431      0.00010625862584      0.00000000000000
   15 c      -0.00009694850362      0.00007857008703      0.00000000000000
   16 c       0.00010207535956      0.00002758328094      0.00000000000000
   17 c       0.00002973486724     -0.00011180241842      0.00000000000000
   18 c      -0.00002714985777     -0.00010219149495      0.00000000000000
   19 c       0.00011651794315      0.00004467482348      0.00000000000000
   20 n      -0.00000453296280     -0.00022036857357      0.00000000000000
   21 c      -0.00007214676498      0.00008378773988      0.00000000000000
   22 h       0.00002156748000      0.00000799533690      0.00000000000000
   23 h      -0.00001320138489      0.00000659143657      0.00000514834324
   24 h      -0.00001320138489      0.00000659143657     -0.00000514834324
   25 h      -0.00000385957513     -0.00002267565403      0.00000000000000
   26 h      -0.00001770790487      0.00001468031712      0.00000000000000
   27 h       0.00001230904397      0.00000813701639     -0.00000514834324
   28 h       0.00001230904397      0.00000813701639      0.00000514834324
   29 h       0.00000089234093     -0.00001472845297     -0.00000514834324
   30 h       0.00000089234093     -0.00001472845297      0.00000514834324
  *************************************************************************

  norm of actual CARTESIAN gradient:  5.63362E-04
  norm of actual INTERNAL  gradient:  4.29633E-04

  ENERGY =    -854.6159819338 a.u.; # of cycle =   68

  Approximate Hessian read from $hessapprox data section

  Hessian updated according to Powell formula
  Number of zero Hessian eigenvalues:   0

   5 first eigenvalues: 
 -0.17154189  0.01719299  0.09507390  0.13816950  0.18548657

  Eigenvalue of transition vector: -0.17154189

  Largest and next-largest overlaps:   0.97252434  0.23123976

  Old transition vector    1 has overlap 0.97252434 with the new    1

        ***************  Trust radius update info  *****************
                Actual energy change:        1.51600E-07
                Predicted energy change:    -9.47720E-07
                Actual step radius:          3.65111E-03
                Actual trust radius:         0.003651
                Energy change ratio:        -0.159963
                New trust radius:            0.001000
        ************************************************************


  Results of the TRO shift search
  Final shift: -2.67946E-01 residual -1.82112E-20
  Final step radius: 1.00000E-03

  Transforming internal coordinate displacements to Cartesian space
      Iteration   1 residual norm     1.000000E-03
      Iteration   2 residual norm     8.830162E-08
      Iteration   3 residual norm     4.308109E-15
      Transformation converged
      Residual norm:    4.308109E-15 after    3 iterations

      ****************************************************************** 
                          CONVERGENCE INFORMATION

                               Converged?     Value      Criterion
             Energy change         yes      0.0000002   0.0000010
             RMS of displacement   yes      0.0002357   0.0005000
             RMS of gradient       yes      0.0001013   0.0005000
             MAX displacement      yes      0.0008407   0.0010000
             MAX gradient          yes      0.0002394   0.0010000
      ****************************************************************** 


    ------------------------------------------------------------------------
         total  cpu-time :   0.07 seconds
         total wall-time :   0.32 seconds
    ------------------------------------------------------------------------

   ****  statpt : all done  ****


    2018-03-19 17:18:35.307 

