
OPTIMIZATION CYCLE 116
Wed Mar  7 21:18:38 PST 2018
 hostname is c-8-27.local

 frog (c-8-27.local) : TURBOMOLE V7.1 ( ) 5 Apr 2016 at 11:29:09
 Copyright (C) 2016 TURBOMOLE GmbH, Karlsruhe


    2018-03-07 21:18:38.094 


 frog (c-8-27.local) : TURBOMOLE V7.1 ( ) 5 Apr 2016 at 11:29:09
 Copyright (C) 2016 TURBOMOLE GmbH, Karlsruhe


    2018-03-07 21:18:38.094 

 
       `--._            A b     I n i t i o           .-
            `.  M o l e c u l a r   D y n a m i c s  /
              \               .-.       .           / 
               \             /   \     / `.        /  
                `-----._    /     `._.'    `--.__.'   
                        `--'                          
 
 

Reading information from mdmaster                                                                        
 
 =========================================
 TDDFT-SURFACE HOPPING switched on
 Tapavicza, Meyer, and Furche,
 Phys. Chem. Chem. Phys. 13 (2011), 20986.
 =========================================
 
 found keyword $gap_threshold; hop is enforced if gap <  0.500000000000000     
Reading log history information from mdmaster                                                                        
Reading input data from mdlog.1                                                                         
Checking for non-default isotopic masses in control                                                                         
 
No constraints requested.
Reading status from mdmaster                                                                        
Reading actions from mdmaster                                                                        
Getting gradients from control                                                                         
 non-adiabatic coupling vector
 -4.395842655192500E-003 -4.488695993832200E-002  2.200261303553600E-002
 -2.129583217737000E-002  6.439356271804300E-003  1.495822611263800E-002
  1.658400915379000E-002  4.043606654962400E-002 -4.411132354689300E-002
 -5.533824422455800E-003  5.717863203010500E-003  1.831949782418500E-003
  3.191208454637200E-002 -2.989301817835100E-002  4.591142373199400E-002
 -3.114583634320200E-002  3.711074640977600E-002 -4.357348540923500E-002
 -2.355004676265700E-002 -2.573885930385400E-002 -1.623440468568200E-002
  7.283725689603700E-003  3.304042482208500E-003  6.841771798401600E-003
 -7.158450457075000E-003 -2.540401753757200E-002 -1.243447608295400E-002
 leap: Read last 2 entries of RUN.dat
 Old state:           0
 New state:           0
 Propagating Coefficients
 
 ==============Surface Hopping Information================
 
 Probability from           1 to           2 : -1.700637600528324E-003
 Random number   0.643386679090497     
 
 COEFF OF STATE           1 = (0.993108045744967,5.231027129761262E-002)
 COEFF OF STATE           2 = (-9.861127981414977E-002,-3.571918933533249E-002)
 
 POPULATION OF STATE           1 =  0.988999955006618     
 POPULATION OF STATE           2 =  1.100004499335787E-002
 SUM OF ALL POPULATIONS =  0.999999999999975     
 
 =========================================================
 
Scaling KE by   0.997405056033    
 
Generating $log data for last completed MD step:                                
t=   4600.00000000                                                              
-0.292222004632     -0.191044213382     -0.131845298625     ti                  
  1.48611008386      -2.37323987920       2.08594295778     o                   
 -2.50906289615     -0.748713714693      -1.77125383586     o                   
 -4.23592464775      -1.56511666336      -2.19717875399     h                   
-0.606451095521       2.83399352612       1.88402067351     o                   
 0.207864122138       4.20228617248       2.67197669968     h                   
  2.51621039921      0.769827527120      -1.84878446732     o                   
  3.93652863749       1.56840405667      -2.73415600011     h                   
-0.978957651415E-01  -2.77554408867       2.97048623835     h                   
  40.0000000000       0.00000000000                                             
ti       -0.398855451796E-03 -0.382162208977E-03 -0.475896679302E-03            
o         0.189254465493E-03 -0.140272258364E-03 -0.250740568902E-04            
o         0.157236886970E-02  0.998905851916E-03  0.140877063427E-02            
h         0.128676931321E-02 -0.231888528647E-02  0.831099820475E-03            
o        -0.409131877760E-03  0.320343693621E-03 -0.342726372081E-03            
h         0.392850479384E-02 -0.804971081673E-03  0.221133112686E-03            
o        -0.337407114273E-03  0.433384965375E-04  0.338908617860E-03            
h        -0.110741550881E-02  0.423645313867E-03  0.144507615542E-02            
h        -0.126607180410E-02  0.145935108210E-02 -0.178476980787E-02            
 0.122959045583      -1151.98878951       0.00000000000                         
-0.358137422688     -0.153025120645     -0.218122094382                         
 0.500372547378E-01  0.248532361872E-03  0.137711659944E-01                     
 0.323428057169      0.105256961339      0.192274145647                         
-0.484211812802E-01 -0.259004781808E-01 -0.464561050118E-02                     
 0.333930598262E-01  0.586565884891E-01  0.333330158082E-01                     
-0.143968068134E-01 -0.107450841033E-01 -0.533809504476E-02                     
 0.820696906226E-02  0.518425038312E-02  0.118629667337E-01                     
 0.222021488394E-01  0.988226561423E-02 -0.114428801477E-01                     
-0.163120788641E-01  0.104420847449E-01 -0.116926141089E-01                     
 

   Time t=   4600.00000000     a.u. (  111.264800000     fs)

   e x e c u t i n g    M D   s t e p   (leapfrog algorithm)

   Number of MD steps left:    1384
 
   Time t=   4640.00000000     a.u. (  112.232320000     fs)

 
Provisional $current data:                                                      
t=   4640.00000000                                                              
-0.301613650003     -0.203526642697     -0.146884258433     ti                  
  1.49093521592      -2.37886440403       2.08418450858     o                   
 -2.46391142245     -0.714531883333      -1.72545118075     o                   
 -4.14228930181      -1.63531825468      -2.15988942027     h                   
-0.624648315739       2.84358937018       1.86848296754     o                   
 0.377540877473       4.17944401725       2.68547037217     h                   
  2.50226387986      0.771276658719      -1.83587892562     o                   
  3.87289865703       1.57674451299      -2.66638863358     h                   
-0.134334278208      -2.72626288528       2.90927723163     h                   
  40.0000000000       0.00000000000                                             
ti       -0.234486301474E-03 -0.311655579798E-03 -0.375485862605E-03            
o         0.120471687976E-03 -0.140430560747E-03 -0.439041545635E-04            
o         0.112732132176E-02  0.853436314575E-03  0.114357972124E-02            
h         0.233784444471E-02 -0.175276118877E-02  0.931023010621E-03            
o        -0.454339862445E-03  0.239584640806E-03 -0.387938328479E-03            
h         0.423641153734E-02 -0.570312473098E-03  0.336903836432E-03            
o        -0.348210309371E-03  0.361812542493E-04  0.322219656201E-03            
h        -0.158868421797E-02  0.208240694671E-03  0.169198457881E-02            
h        -0.909780110156E-03  0.123043052188E-02 -0.152823845404E-02            
 
    50 energy records for statistics read from mdlog.1                                                                         
       Total Energy (H):
              current value   -1151.86583047    
                    average   -1151.86615367    
         standard deviation   0.363658913813E-03
                      drift  -0.261879904428E-09
        jump from last step  -0.198699049633E-03
 
     Kinetic Energy (H):
              current value   0.122959045583    
                    average   0.150603211940    
         standard deviation   0.440992209620E-01
                      drift   0.425423148373E-02
 avg. quasi-temperature (K)    4528.80017741    
      number of constraints       0
 
         Pressure (GPa):
              current value    0.00000000000    
                    average    0.00000000000    
 
 
   approx integration error   0.207311844853E-02
 
Estimated integration error by reading last steps from mdlog.1                  
 
Generating $log data for last completed MD step:                                
t=   4600.00000000                                                              
-0.292222004632     -0.191044213382     -0.131845298625     ti                  
  1.48611008386      -2.37323987920       2.08594295778     o                   
 -2.50906289615     -0.748713714693      -1.77125383586     o                   
 -4.23592464775      -1.56511666336      -2.19717875399     h                   
-0.606451095521       2.83399352612       1.88402067351     o                   
 0.207864122138       4.20228617248       2.67197669968     h                   
  2.51621039921      0.769827527120      -1.84878446732     o                   
  3.93652863749       1.56840405667      -2.73415600011     h                   
-0.978957651415E-01  -2.77554408867       2.97048623835     h                   
  40.0000000000       0.00000000000                                             
ti       -0.398855451796E-03 -0.382162208977E-03 -0.475896679302E-03            
o         0.189254465493E-03 -0.140272258364E-03 -0.250740568902E-04            
o         0.157236886970E-02  0.998905851916E-03  0.140877063427E-02            
h         0.128676931321E-02 -0.231888528647E-02  0.831099820475E-03            
o        -0.409131877760E-03  0.320343693621E-03 -0.342726372081E-03            
h         0.392850479384E-02 -0.804971081673E-03  0.221133112686E-03            
o        -0.337407114273E-03  0.433384965375E-04  0.338908617860E-03            
h        -0.110741550881E-02  0.423645313867E-03  0.144507615542E-02            
h        -0.126607180410E-02  0.145935108210E-02 -0.178476980787E-02            
 0.122959045583      -1151.98878951       0.00000000000                         
-0.358137422688     -0.153025120645     -0.218122094382                         
 0.500372547378E-01  0.248532361872E-03  0.137711659944E-01                     
 0.323428057169      0.105256961339      0.192274145647                         
-0.484211812802E-01 -0.259004781808E-01 -0.464561050118E-02                     
 0.333930598262E-01  0.586565884891E-01  0.333330158082E-01                     
-0.143968068134E-01 -0.107450841033E-01 -0.533809504476E-02                     
 0.820696906226E-02  0.518425038312E-02  0.118629667337E-01                     
 0.222021488394E-01  0.988226561423E-02 -0.114428801477E-01                     
-0.163120788641E-01  0.104420847449E-01 -0.116926141089E-01                     
 
Generated $current data for new MD step:                                        
t=   4640.00000000                                                              
-0.301613650003     -0.203526642697     -0.146884258433     ti                  
  1.49093521592      -2.37886440403       2.08418450858     o                   
 -2.46391142245     -0.714531883333      -1.72545118075     o                   
 -4.14228930181      -1.63531825468      -2.15988942027     h                   
-0.624648315739       2.84358937018       1.86848296754     o                   
 0.377540877473       4.17944401725       2.68547037217     h                   
  2.50226387986      0.771276658719      -1.83587892562     o                   
  3.87289865703       1.57674451299      -2.66638863358     h                   
-0.134334278208      -2.72626288528       2.90927723163     h                   
  40.0000000000       0.00000000000                                             
ti       -0.234486301474E-03 -0.311655579798E-03 -0.375485862605E-03            
o         0.120471687976E-03 -0.140430560747E-03 -0.439041545635E-04            
o         0.112732132176E-02  0.853436314575E-03  0.114357972124E-02            
h         0.233784444471E-02 -0.175276118877E-02  0.931023010621E-03            
o        -0.454339862445E-03  0.239584640806E-03 -0.387938328479E-03            
h         0.423641153734E-02 -0.570312473098E-03  0.336903836432E-03            
o        -0.348210309371E-03  0.361812542493E-04  0.322219656201E-03            
h        -0.158868421797E-02  0.208240694671E-03  0.169198457881E-02            
h        -0.909780110156E-03  0.123043052188E-02 -0.152823845404E-02            
 
Logging MD run data ($log) to file mdlog.1                                                                         
Writing data for next step ($current) to mdlog.1                                                                         

    2018-03-07 21:18:38.549 

         total cpu-time :   0.45 seconds
         total wall-time :   0.46 seconds

          ******************************************************



    ------------------------------------------------------------------------
         total  cpu-time :   0.46 seconds
         total wall-time :   0.46 seconds
    ------------------------------------------------------------------------

   ****  frog : all done  ****


    2018-03-07 21:18:38.550 

 operating system is UNIX !
 hostname is c-8-27.local

 ridft (c-8-27.local) : TURBOMOLE V7.1 ( ) 5 Apr 2016 at 11:29:09
 Copyright (C) 2016 TURBOMOLE GmbH, Karlsruhe


    2018-03-07 21:18:38.662 



                                  r i d f t

                        DFT program with RI approximation 
                                for coulomb part 




                                                 
                                 References:     
                                                 
          TURBOMOLE:                             
              R. Ahlrichs, M. Baer, M. Haeser, H. Horn, and
              C. Koelmel
              Electronic structure calculations on workstation
              computers: the program system TURBOMOLE
              Chem. Phys. Lett. 162: 165 (1989)
          Density Functional:                              
              O. Treutler and R. Ahlrichs                      
              Efficient Molecular Numerical Integration Schemes
              J. Chem. Phys. 102: 346 (1995)                   
          Parallel Version:                                
              Performance of parallel TURBOMOLE for Density    
              Functional Calculations                          
              M. v. Arnim and R. Ahlrichs                      
              J. Comp. Chem. 19: 1746 (1998)                   
          RI-J Method:                                     
              Auxiliary Basis Sets to approximate Coulomb      
              Potentials                                       
              Chem. Phys. Lett. 240: 283 (1995)                
              K. Eichkorn, O. Treutler, H. Oehm, M. Haeser     
              and R. Ahlrichs                                  
              Chem. Phys. Lett. 242: 652 (1995)                
                                                           
              Auxiliary Basis Sets for Main Row Atoms and their
              Use to approximate Coulomb Potentials            
              K. Eichkorn, F. Weigend, O. Treutler and         
              R. Ahlrichs                                      
              Theo. Chem. Acc. 97: 119 (1997)                   
                                                           
              Accurate Coulomb-fitting basis sets for H to Rn 
              F. Weigend                                        
              Phys. Chem. Chem. Phys. 8: 1057 (2006)            
                                                           
          Multipole accelerated RI-J (MARI-J):             
              Fast evaluation of the Coulomb potential for     
              electron densities using multipole accelerated   
              resolution of identity approximation             
              M. Sierka, A. Hogekamp and R. Ahlrichs           
              J. Chem. Phys. 118: 9136 (2003)                  
          RI-JK Method:                                     
              A fully direct RI-HF algorithm: Implementation,
              optimised auxiliary basis sets, demonstration of
              accuracy and efficiency                         
              F. Weigend                                      
              Phys. Chem. Chem. Phys. 4: 4285 (2002)           
          Two-component HF and DFT with spin-orbit coupling:  
              Self-consistent treatment of spin-orbit         
              interactions with efficient Hartree-Fock and    
              density functional methods                      
              M. K. Armbruster, F. Weigend, C. van Wüllen and 
              W. Klopper                                      
              Phys. Chem. Chem. Phys. 10: 1748 (2008)         
          Relativistic all-electron 2c calculations           
              An efficient implementation of two-component    
              relativistic exact-decoupling methods for large 
              molecules                                       
              D. Peng, N. Middendorf, F. Weigend, M. Reiher   
              J. Chem. Phys. 138, 184105 (2013)               
                                         


 


              +--------------------------------------------------+
              |      general information about current run       |
              +--------------------------------------------------+

 

 DENSITY CONVERGENCE CHECK SWITCHED ON !
 SCF CONVERGENCE IF RMS(delta[D]) <     0.1000000000E-06

 PBE0 hybrid functional
 exchange:    3/4 (LDA+PBE) + 1/4 HF
 correlation: LDA (PW) + PBE
 A Hybrid-DFT calculation using the RI-J approximation will be carried out.
 Allocatable memory for RI due to $ricore (MB):         500


              +--------------------------------------------------+
              | Atomic coordinate, charge and isotop information |
              +--------------------------------------------------+

                    atomic coordinates            atom    charge  isotop
         -0.30161365   -0.20352664   -0.14688426    ti    22.000     0
          1.49093522   -2.37886440    2.08418451    o      8.000     0
         -2.46391142   -0.71453188   -1.72545118    o      8.000     0
         -4.14228930   -1.63531825   -2.15988942    h      1.000     0
         -0.62464832    2.84358937    1.86848297    o      8.000     0
          0.37754088    4.17944402    2.68547037    h      1.000     0
          2.50226388    0.77127666   -1.83587893    o      8.000     0
          3.87289866    1.57674451   -2.66638863    h      1.000     0
         -0.13433428   -2.72626289    2.90927723    h      1.000     0
 
       center of nuclear mass  :    0.00000000   -0.00000001    0.00000001
       center of nuclear charge:    0.00992122    0.01877205    0.01151232

              +--------------------------------------------------+
              |               basis set information              |
              +--------------------------------------------------+

              we will work with the 1s 3p 5d 7f 9g ... basis set
              ...i.e. with spherical basis functions...

   type   atoms  prim   cont   basis
   ---------------------------------------------------------------------------
    ti       1     73     31   def2-SVP   [5s3p2d1f|14s9p5d1f]
    o        4     24     14   def2-SVP   [3s2p1d|7s4p1d]
    h        4      7      5   def2-SVP   [2s1p|4s1p]
   ---------------------------------------------------------------------------
   total:    9    197    107
   ---------------------------------------------------------------------------

   total number of primitive shells          :   46
   total number of contracted shells         :   47
   total number of cartesian basis functions :  116
   total number of SCF-basis functions       :  107


 integral neglect threshold       :  0.29E-10
 integral storage threshold THIZE :  0.10E-04
 integral storage threshold THIME :         5

 RI-J AUXILIARY BASIS SET information:

              we will work with the 1s 3p 5d 7f 9g ... basis set
              ...i.e. with spherical basis functions...

   type   atoms  prim   cont   basis
   ---------------------------------------------------------------------------
    ti       1    107     89   def2-SVP   [8s5p5d2f3g|19s5p5d3f3g]
    o        4     70     49   def2-SVP   [6s4p3d1f1g|12s5p4d2f1g]
    h        4     16     11   def2-SVP   [3s1p1d|5s2p1d]
   ---------------------------------------------------------------------------
   total:    9    451    329
   ---------------------------------------------------------------------------

   total number of primitive shells          :   67
   total number of contracted shells         :  103
   total number of cartesian basis functions :  410
   total number of SCF-basis functions       :  329


 symmetry group of the molecule :   c1 

 the group has the following generators :
   c1(z)

    1 symmetry operations found

 there are 1 real representations :   a   

 maximum number of shells which are related by symmetry :  1


    mo occupation :
   irrep   mo's   occupied
    a      107       29
 
 number of basis functions   :          107
 number of occupied orbitals :           29
 
  
           ------------------
           density functional
           ------------------
 PBE0 hybrid functional
 exchange:    3/4 (LDA+PBE) + 1/4 HF
 correlation: LDA (PW) + PBE
 iterations will be done with small grid
  
 spherical integration : Lebedev's spherical grid
 spherical gridsize    :           3
    i.e. gridpoints    :         302
 value for diffuse not defined
 radial integration    : Chebyshev 2nd kind (scaling 3)
 radial gridsize       :           3
 integration cells     :           9
 partition function    : becke
 partition sharpness   :           3
  

 biggest AO integral is expected to be    13.493451081
  
           ------------------------
               RI-J - INFORMATION
           ------------------------
 Contributions to RI integral batches: 
  neglected integral batches:          57
  direct contribution:                  0
  memory contribution:        1071
 Memory core needed for (P|Q) and Cholesky      1 MByte
 Memory core minimum needed except of (P|Q)     1 MByte
 Total minimum memory core needed (sum)         1 MByte
  
 ****************************************
 Memory allocated for RI-J    22 MByte
 ****************************************
                                            

          ------------------------
          nuclear repulsion energy  :   335.873889747    
          ------------------------

 
          -----------------
          -S,T+V- integrals
          -----------------

 1e-integrals will be neglected if expon. factor < 0.288100E-11
 
   Difference densities algorithm switched on.
   The maximal number of linear combinations of
   difference densities is          20 .

 DIIS switched on: error vector is FDS-SDF
 Max. Iterations for DIIS is     :   4
 DIIS matrix (see manual) 
    Scaling factor of diagonals  :  1.200
    threshold for scaling factor :  0.000

 scf convergence criterion : increment of total energy < .1000000D-06
                  and increment of one-electron energy < .1000000D-03

  MOs are in ASCII format !


 automatic virtual orbital shift switched on 
      shift if e(lumo)-e(homo) < 0.10000000    


 reading orbital data $scfmo  from file mos
 orbital characterization : scfconv=7

 DSCF restart information will be dumped onto file mos


 Starting SCF iterations

          Overall gridpoints after grid construction =         13496

 ITERATION  ENERGY          1e-ENERGY        2e-ENERGY     RMS[dD(SAO)]   TOL
   1  -1151.9468168641    -2250.9317889     763.11108225    0.000D+00 0.287D-10
                            Exc = -58.6762855486     Coul =  840.625375708    
                            exK = -18.8380079135    
                              N = 57.999632781    
                            current damping = 0.700
 
          max. resid. norm for Fia-block=  2.096D-02 for orbital     28a         
          max. resid. fock norm         =  1.049D-01 for orbital    106a         

 ITERATION  ENERGY          1e-ENERGY        2e-ENERGY     RMS[dD(SAO)]   TOL
   2  -1151.9505803507    -2251.1178556     763.29338549    0.109D-02 0.182D-10
                            Exc = -58.6814865142      Eck =  821.974872002    
                              N = 57.999646125    
                            current damping = 0.650
 
          Norm of current diis error: 0.59097E-01
          max. resid. norm for Fia-block=  1.153D-02 for orbital     28a         
          max. resid. fock norm         =  4.853D-02 for orbital    106a         

 ITERATION  ENERGY          1e-ENERGY        2e-ENERGY     RMS[dD(SAO)]   TOL
   3  -1151.9512866582    -2250.9278787     763.10270226    0.606D-03 0.142D-10
                            Exc = -58.6826379669      Eck =  821.785340226    
                              N = 57.999653414    
                            current damping = 0.600
 
          Norm of current diis error: 0.42744E-01
          max. resid. norm for Fia-block=  5.431D-03 for orbital     28a         
          max. resid. fock norm         =  1.816D-02 for orbital    106a         

 ITERATION  ENERGY          1e-ENERGY        2e-ENERGY     RMS[dD(SAO)]   TOL
   4  -1151.9515851121    -2251.0632053     763.23773048    0.327D-03 0.129D-10
                            Exc = -58.6791084264      Eck =  821.916838910    
                              N = 57.999655510    
                            current damping = 0.650
 
          Norm of current diis error: 0.14667E-01
          max. resid. norm for Fia-block=  2.125D-03 for orbital     28a         
          max. resid. fock norm         =  6.925D-03 for orbital    106a         

 ITERATION  ENERGY          1e-ENERGY        2e-ENERGY     RMS[dD(SAO)]   TOL
   5  -1151.9516231361    -2251.0140937     763.18858086    0.133D-03 0.123D-10
                            Exc = -58.6824230130      Eck =  821.871003872    
                              N = 57.999657486    
                            current damping = 0.700
 
          Norm of current diis error: 0.90019E-02
          max. resid. norm for Fia-block=  9.748D-04 for orbital     28a         
          max. resid. fock norm         =  2.822D-03 for orbital    106a         
          mo-orthogonalization: Cholesky decomposition

 ITERATION  ENERGY          1e-ENERGY        2e-ENERGY     RMS[dD(SAO)]   TOL
   6  -1151.9516364187    -2251.0402546     763.21472843    0.584D-04 0.119D-10
                            Exc = -58.6818709913      Eck =  821.896599421    
                              N = 57.999658119    
                            current damping = 0.750
 
          Norm of current diis error: 0.20830E-02
          max. resid. norm for Fia-block=  4.224D-04 for orbital     28a         
          max. resid. fock norm         =  1.115D-03 for orbital    106a         

 ITERATION  ENERGY          1e-ENERGY        2e-ENERGY     RMS[dD(SAO)]   TOL
   7  -1151.9516376899    -2251.0317265     763.20619908    0.233D-04 0.116D-10
                            Exc = -58.6813529021      Eck =  821.887551979    
                              N = 57.999658274    
                            current damping = 0.800
 
          Norm of current diis error: 0.11131E-02
          max. resid. norm for Fia-block=  1.988D-04 for orbital     28a         
          max. resid. fock norm         =  4.779D-04 for orbital    106a         

 ITERATION  ENERGY          1e-ENERGY        2e-ENERGY     RMS[dD(SAO)]   TOL
   8  -1151.9516379592    -2251.0370978     763.21157006    0.112D-04 0.113D-10
                            Exc = -58.6814601650      Eck =  821.893030224    
                              N = 57.999658432    
                            current damping = 0.850
 
          Norm of current diis error: 0.66305E-03
          max. resid. norm for Fia-block=  1.102D-04 for orbital     28a         
          max. resid. fock norm         =  2.270D-04 for orbital    106a         

 ITERATION  ENERGY          1e-ENERGY        2e-ENERGY     RMS[dD(SAO)]   TOL
   9  -1151.9516380460    -2251.0349785     763.20945070    0.593D-05 0.111D-10
                            Exc = -58.6815477481      Eck =  821.890998453    
                              N = 57.999658529    
                            current damping = 0.900
 
          Norm of current diis error: 0.40064E-03
          max. resid. norm for Fia-block=  5.839D-05 for orbital     28a         
          max. resid. fock norm         =  9.888D-05 for orbital    106a         

 ITERATION  ENERGY          1e-ENERGY        2e-ENERGY     RMS[dD(SAO)]   TOL
  10  -1151.9516380760    -2251.0358378     763.21030993    0.322D-05 0.107D-10
                            Exc = -58.6814729591      Eck =  821.891782887    
                              N = 57.999658554    
                            current damping = 0.950
 
          Norm of current diis error: 0.17532E-03
          max. resid. norm for Fia-block=  2.767D-05 for orbital     28a         
          max. resid. fock norm         =  4.552D-05 for orbital    106a         
          mo-orthogonalization: Cholesky decomposition

 ITERATION  ENERGY          1e-ENERGY        2e-ENERGY     RMS[dD(SAO)]   TOL
  11  -1151.9516380831    -2251.0349194     763.20939155    0.158D-05 0.104D-10
                            Exc = -58.6814541125      Eck =  821.890845667    
                              N = 57.999658562    
                            current damping = 1.000
 
          Norm of current diis error: 0.93949E-04
          max. resid. norm for Fia-block=  1.601D-05 for orbital     28a         
          max. resid. fock norm         =  2.419D-05 for orbital    106a         

 ITERATION  ENERGY          1e-ENERGY        2e-ENERGY     RMS[dD(SAO)]   TOL
  12  -1151.9516380856    -2251.0353166     763.20978882    0.799D-06 0.101D-10
                            Exc = -58.6814662913      Eck =  821.891255107    
                              N = 57.999658576    
                            current damping = 1.050
 
          Norm of current diis error: 0.45832E-04
          max. resid. norm for Fia-block=  8.230D-06 for orbital     28a         
          max. resid. fock norm         =  1.149D-05 for orbital    106a         

 ENERGY & DENSITY CONVERGED !

          Overall gridpoints after grid construction =         48555

 ITERATION  ENERGY          1e-ENERGY        2e-ENERGY     RMS[dD(SAO)]   TOL
  13  -1151.9512624295    -2251.0352917     763.21013952    0.427D-06 0.977D-11
                            Exc = -58.6810908499      Eck =  821.891230368    
                              N = 57.999992914    
                            current damping = 1.100
 
          Norm of current diis error: 0.28823E-04
          max. resid. norm for Fia-block=  5.504D-06 for orbital     28a         
          max. resid. fock norm         =  5.915D-06 for orbital     28a         

 End of SCF iterations

   convergence criteria satisfied after   13 iterations


                  ------------------------------------------ 
                 |  total energy      =  -1151.95126242952  |
                  ------------------------------------------ 
                 :  kinetic energy    =   1149.52361811681  :
                 :  potential energy  =  -2301.47488054634  :
                 :  virial theorem    =      1.99789258071  :
                 :  wavefunction norm =      1.00000000000  :
                  .......................................... 


 orbitals $scfmo  will be written to file mos

    irrep                 25a         26a         27a         28a         29a   
 eigenvalues H         -0.31191    -0.30170    -0.29417    -0.26492    -0.25669
            eV          -8.4876     -8.2097     -8.0047     -7.2089     -6.9849
 occupation              2.0000      2.0000      2.0000      2.0000      2.0000 

    irrep                 30a         31a         32a         33a         34a   
 eigenvalues H         -0.03040    -0.02230    -0.02163    -0.00930     0.03840
            eV          -0.8272     -0.6069     -0.5887     -0.2531      1.0450
 
 
 
 
 ==============================================================================
                           electrostatic moments
 ==============================================================================

 reference point for electrostatic moments:    0.00000   0.00000   0.00000

 
              nuc           elec       ->  total
 ------------------------------------------------------------------------------
                          charge      
 ------------------------------------------------------------------------------
          58.000000     -58.000000       0.000000
 
 ------------------------------------------------------------------------------
                       dipole moment  
 ------------------------------------------------------------------------------
   x       0.575431      -2.069722      -1.494291
   y       1.088779      -1.467695      -0.378916
   z       0.667715      -1.521731      -0.854016
 
   | dipole moment | =     1.7623 a.u. =     4.4794 debye 
 
 ------------------------------------------------------------------------------
                     quadrupole moment
 ------------------------------------------------------------------------------
  xx     153.881904    -176.901447     -23.019543
  yy     149.775318    -177.247968     -27.472650
  zz     141.386540    -168.652116     -27.265576
  xy       3.115215       4.903150       8.018365
  xz      12.999901     -13.144253      -0.144352
  yz       4.654901      -3.375629       1.279272
 
     1/3  trace=     -25.919256
     anisotropy=      14.724320
 
 ==============================================================================
 


    ------------------------------------------------------------------------
         total  cpu-time :  10.64 seconds
         total wall-time :  10.68 seconds
    ------------------------------------------------------------------------

   ****  ridft : all done  ****


    2018-03-07 21:18:49.272 

fine, there is no data group "$actual step"
next step = rdgrad
 hostname is c-8-27.local
           Doing BLAS/Lapack in the master proc. with  8 CPUs.
           SMPCPUS    set: Shared-memory Parallelization with   8 CPUs.

           SMP Parallelization Reference:
           C. van Wullen, J. Comput. Chem. 32 (2011) 1195--1201

 egrad (c-8-27.local) : TURBOMOLE V7.1 ( ) 5 Apr 2016 at 11:29:09
 Copyright (C) 2016 TURBOMOLE GmbH, Karlsruhe


    2018-03-07 21:18:49.476 




                               e g r a d

                       quantum chemistry group
                       university of karlsruhe
                               germany


             integral direct evaluation of excited state
                     and polarizability gradients
                 and first-order nonadiabatic couplings



          references (see also programs escf, dscf and ridft) 

          review 
          F. Furche and D. Rappoport,  
          "Density functional methods for excited states: 
          equilibrium structure and electronic spectra",
          ch. III of "Computational Photochemistry", ed. by 
          M. Olivucci, vol. 16 of "Theoretical and Computational 
          Chemistry", Elsevier, Amsterdam, 2005.

          RI-J method 
          D. Rappoport and F. Furche, 
          J. Chem. Phys. 122 (2005), 064105.

          Lagrangian method, implementation, benchmarks 
          F. Furche and R. Ahlrichs,
          J. Chem. Phys. 117 (2002), 7433;
          J. Chem. Phys. 121 (2004), 12772 (E).

          Polarizability derivatives, Raman intensities 
          D. Rappoport and F. Furche, 
          J. Chem. Phys. 126 (2007), 201104.

          First-order nonadiabatic couplings 
          R. Send and F. Furche, 
          J. Chem. Phys. 132 (2010), 044107.
                                     




              +--------------------------------------------------+
              | Atomic coordinate, charge and isotop information |
              +--------------------------------------------------+

                    atomic coordinates            atom    charge  isotop
         -0.30161365   -0.20352664   -0.14688426    ti    22.000     0
          1.49093522   -2.37886440    2.08418451    o      8.000     0
         -2.46391142   -0.71453188   -1.72545118    o      8.000     0
         -4.14228930   -1.63531825   -2.15988942    h      1.000     0
         -0.62464832    2.84358937    1.86848297    o      8.000     0
          0.37754088    4.17944402    2.68547037    h      1.000     0
          2.50226388    0.77127666   -1.83587893    o      8.000     0
          3.87289866    1.57674451   -2.66638863    h      1.000     0
         -0.13433428   -2.72626289    2.90927723    h      1.000     0
 
       center of nuclear mass  :    0.00000000   -0.00000001    0.00000001
       center of nuclear charge:    0.00992122    0.01877205    0.01151232

              +--------------------------------------------------+
              |               basis set information              |
              +--------------------------------------------------+

              we will work with the 1s 3p 5d 7f 9g ... basis set
              ...i.e. with spherical basis functions...

   type   atoms  prim   cont   basis
   ---------------------------------------------------------------------------
    ti       1     73     31   def2-SVP   [5s3p2d1f|14s9p5d1f]
    o        4     24     14   def2-SVP   [3s2p1d|7s4p1d]
    h        4      7      5   def2-SVP   [2s1p|4s1p]
   ---------------------------------------------------------------------------
   total:    9    197    107
   ---------------------------------------------------------------------------

   total number of primitive shells          :   46
   total number of contracted shells         :   47
   total number of cartesian basis functions :  116
   total number of SCF-basis functions       :  107


 residuum convergence criterium   :  0.10E-04


 integral neglect threshold       :  0.29E-10
 integral storage threshold THIZE :  0.10E-04
 integral storage threshold THIME :         5

 
             FOUND RI-J FLAG !
 
  
 AUXILIARY BASIS SET information:

              we will work with the 1s 3p 5d 7f 9g ... basis set
              ...i.e. with spherical basis functions...

   type   atoms  prim   cont   basis
   ---------------------------------------------------------------------------
    ti       1    107     89   def2-SVP   [8s5p5d2f3g|19s5p5d3f3g]
    o        4     70     49   def2-SVP   [6s4p3d1f1g|12s5p4d2f1g]
    h        4     16     11   def2-SVP   [3s1p1d|5s2p1d]
   ---------------------------------------------------------------------------
   total:    9    451    329
   ---------------------------------------------------------------------------

   total number of primitive shells          :   67
   total number of contracted shells         :  103
   total number of cartesian basis functions :  410
   total number of SCF-basis functions       :  329

 RPA SINGLET-EXCITATION-CALCULATION 
 
             FOUND DFT-FLAG !
 
 
 FOUND Nonadiabatic Coupling-FLAG !
 Note: the sign convention for NACME changed
 such that <0|d/dx|n> is now computed.

 symmetry group of the molecule :   c1 

 the group has the following generators :
   c1(z)

    1 symmetry operations found

 there are 1 real representations :   a   

 maximum number of shells which are related by symmetry :  1

 IRREP of excited state :   a   
 

 determining totally symmetric integral contributions 
    - equivalent to irreducible tensor elements - 
 which can be formed within each triple of representations :

             representation triple      contributions

              a     a     a               1

    mo occupation :
   irrep   mo's   occupied
    a      107       29
 
 number of basis functions   :          107
 number of occupied orbitals :           29
 
  
           ------------------
           density functional
           ------------------
 PBE0 hybrid functional
 exchange:    3/4 (LDA+PBE) + 1/4 HF
 correlation: LDA (PW) + PBE
 iterations will be done with small grid
  
 spherical integration : Lebedev's spherical grid
 spherical gridsize    :           3
    i.e. gridpoints    :         302
 value for diffuse not defined
 radial integration    : Chebyshev 2nd kind (scaling 3)
 radial gridsize       :           3
 integration cells     :           9
 partition function    : becke
 partition sharpness   :           3
  
 
 Derivatives of quadrature weights will be included
 
  
           ----------------------
               RI - INFORMATION
           ----------------------

 biggest AO integral is expected to be    13.493451081

 Threshold for integral neglect (rithr2):   0.29E-10
 Threshold for integral neglect (rithr1):   0.29E-10

 Contributions to RI integral batches: 
  neglected integral batches:          48
  direct contribution:                  0
  memory contribution:        1080
 Core memory available (ricore)            500 MiB
 Core memory needed for (P|Q) and Cholesky 1 MiB
 Core memory used for integrals            21 MiB
  
 ****************************************
 Memory allocated for RIDFT 22 MiB
 ****************************************
                                            
  MOs are in ASCII format !


 reading orbital data $scfmo  from file mos
 orbital characterization : scfconv=7
 preparing numerical integration ....
          Overall gridpoints after grid construction =         13496
 Ordering of quadrature gridpoints disabled.

 Calculating ground state density on molecular grid

 Integral of ground state density: N =   57.99965858318902    



 number of non-frozen orbitals          :   107
 number of non-frozen occupied orbitals :    29



                        -------------------
                         excitation vector 
                        -------------------


 dimension of super-tensorspace: 2

          IRREP   tensor space dimension   number of roots

           a              2262                   1

 maximum number of Davidson iterations set to   25


 machine precision: 2.22D-16


 logfile sing_a    exists already

 found      1 converged vectors on sing_a   
 read       1 vectors from logfile sing_a   



                       Nonorthonormal Krylov Space Iteration


 total number of roots to be determined:   1


 maximum core memory set to   500 MB,
 corresponding to     2317 vectors in CAO basis


 maximum number of simultaneously treated vectors (including degeneracy):        1


 Iteration IRREP Converged      Max. Euclidean
                 roots          residual norm

    1       a        0        7.560546308315318D-02
 
    2       a        0        4.109264604612464D-02
 
    3       a        0        3.919592957308290D-02
 
    4       a        0        3.191033278425005D-02
 
    5       a        0        2.362460294756749D-02
 
    6       a        0        2.576545863638484D-02
 
    7       a        0        1.573196788377818D-02
 
    8       a        0        1.371749241946091D-02
 
    9       a        0        1.051263850721153D-02
 
   10       a        0        1.136188293820315D-02
 
   11       a        0        9.045901213640396D-03
 
   12       a        0        7.796320540764691D-03
 
   13       a        0        1.089799882648085D-02
 
   14       a        0        9.595151837542178D-03
 
   15       a        0        9.521488635545148D-03
 
   16       a        0        8.924552750629595D-03
 
   17       a        0        4.945930116632103D-03
 
   18       a        0        2.531547747271188D-03
 
   19       a        0        1.351253622644023D-03
 
   20       a        0        9.519734039187453D-04
 
   21       a        0        7.357200952581929D-04
 
   22       a        0        3.730097348571782D-04
 
   23       a        0        1.554718032908210D-04
 
   24       a        0        5.812137912696997D-05
 
   25       a        0        2.448278018017014D-05
 


 Warning! No convergence within  25 iterations.
 Unless you have specified a very low $escfiterlimit/$forceiterlimit, 
 this is a reason to worry!



 IRREP   Vector     Eigenvalue           Euclidean residual norm

  a         1    1.707535333897422D-01    2.448278018017014D-05
 

 Deallocation failure for file unit arrays in <egrad>


========================
 internal module stack: 
------------------------
    egrad
========================

  abnormal termination
 egrad ended abnormally
error in gradient step (1)
