
OPTIMIZATION CYCLE 498
Thu Mar  8 01:03:44 PST 2018
 hostname is c-8-252.local

 frog (c-8-252.local) : TURBOMOLE V7.1 ( ) 5 Apr 2016 at 11:29:09
 Copyright (C) 2016 TURBOMOLE GmbH, Karlsruhe


    2018-03-08 01:03:44.990 


 frog (c-8-252.local) : TURBOMOLE V7.1 ( ) 5 Apr 2016 at 11:29:09
 Copyright (C) 2016 TURBOMOLE GmbH, Karlsruhe


    2018-03-08 01:03:44.990 

 
       `--._            A b     I n i t i o           .-
            `.  M o l e c u l a r   D y n a m i c s  /
              \               .-.       .           / 
               \             /   \     / `.        /  
                `-----._    /     `._.'    `--.__.'   
                        `--'                          
 
 

Reading information from mdmaster                                                                        
 
 =========================================
 TDDFT-SURFACE HOPPING switched on
 Tapavicza, Meyer, and Furche,
 Phys. Chem. Chem. Phys. 13 (2011), 20986.
 =========================================
 
 found keyword $gap_threshold; hop is enforced if gap <  0.500000000000000     
Reading log history information from mdmaster                                                                        
Reading input data from mdlog.2                                                                         
Checking for non-default isotopic masses in control                                                                         
 
No constraints requested.
Reading status from mdmaster                                                                        
Reading actions from mdmaster                                                                        
Getting gradients from control                                                                         
 non-adiabatic coupling vector
 -5.438563522459500E-002  5.170377366740900E-002  0.113096561264130     
  3.456362512195000E-003 -2.462941817542800E-002  4.151948650069900E-003
  2.403445236106400E-002 -6.693192855360300E-002 -9.139569728527200E-002
 -2.151897087243000E-002  8.755808660986899E-003  1.265743128800400E-002
 -1.132455251172400E-002 -3.479018281994200E-003  2.201182062620500E-002
 -1.095344757634700E-002 -7.585034663648400E-003  3.488189470899600E-003
 -1.633107728553600E-003 -9.292085577384901E-003 -1.320434255957600E-002
 -3.294421577585600E-003 -1.346523592427800E-002 -1.028900793876400E-002
  3.532726113182600E-003 -8.780848683282100E-003 -1.923961948247300E-003
 leap: Read last 2 entries of RUN.dat
 Old state:           0
 New state:           0
 Propagating Coefficients
 
 ==============Surface Hopping Information================
 
 Probability from           1 to           2 : -4.766326967981928E-004
 Random number   0.251016566686522     
 
 COEFF OF STATE           1 = (0.983582687246352,-1.081549217993288E-002)
 COEFF OF STATE           2 = (6.353272062686140E-002,0.168557752381025)
 
 POPULATION OF STATE           1 =  0.967551877521849     
 POPULATION OF STATE           2 =  3.244812247799390E-002
 SUM OF ALL POPULATIONS =  0.999999999999843     
 
 =========================================================
 
Scaling KE by    1.04381425182    
 
Generating $log data for last completed MD step:                                
t=   19880.0000000                                                              
 0.129331263957E-01 -0.829143548359E-01 -0.160585296535E-01 ti                  
  1.68010507365      -2.20271069324       1.53479427185     o                   
 -3.28663985244      -1.79793564192      -1.84796050136     o                   
 -4.38179051424      -3.71328298605      -1.07086069342     h                   
-0.583919842613       2.78333647594       2.47616113860     o                   
 -2.16579417124       2.08178034501       2.24816221950     h                   
  2.16174536337       1.55009401244      -2.07448245353     o                   
  2.99684098757       2.23840924538      -3.52903035436     h                   
  3.39183868293      -1.94896166140       1.70990916032     h                   
  40.0000000000       0.00000000000                                             
ti        0.165421094613E-03 -0.274791945426E-03 -0.136713389125E-03            
o         0.232325783510E-03  0.162678666824E-04  0.134467467803E-03            
o         0.786655010058E-04  0.163966406850E-03 -0.213089328735E-03            
h        -0.356441390348E-02  0.103729230127E-02  0.178458553648E-02            
o        -0.233587044838E-03  0.495390799295E-03  0.107512109213E-02            
h        -0.389927250492E-02  0.114470149446E-02 -0.400019578143E-02            
o        -0.100935351988E-03 -0.179534661695E-03 -0.515639937538E-03            
h         0.212832511537E-03  0.173850201547E-02  0.120325452391E-03            
h        -0.236657654015E-03  0.126357232885E-02  0.959448921650E-03            
 0.847471925926E-01  -1151.97197357       0.00000000000                         
 0.781870110934E-01 -0.849856252443E-01  0.653383219227E-01                     
 0.599869221915E-02  0.584224569804E-01 -0.313234248195E-01                     
-0.185709315395E-02  0.573398922154E-01 -0.699966433520E-01                     
-0.616315196732E-01 -0.974433739863E-01  0.341768025371E-01                     
-0.536897582362E-01  0.411791368480E-01  0.412592708893E-01                     
 0.706612740064E-01  0.280034336292E-02 -0.130036726393E-01                     
 0.178737556020E-01  0.233088583430E-01 -0.158589220443E-01                     
 0.173134602393E-02  0.122942060877E-03  0.255774422819E-03                     
-0.572737078858E-01 -0.744630582602E-03 -0.108475069247E-01                     
 

   Time t=   19880.0000000     a.u. (  480.857440000     fs)

   e x e c u t i n g    M D   s t e p   (leapfrog algorithm)

   Number of MD steps left:    1002
 
   Time t=   19920.0000000     a.u. (  481.824960000     fs)

 
Provisional $current data:                                                      
t=   19920.0000000                                                              
 0.181172577295E-01 -0.923487412088E-01 -0.227243360442E-01 ti                  
  1.68906901640      -2.20526503779       1.54189137538     o                   
 -3.28339135217      -1.79452265530      -1.85264405479     o                   
 -4.47069909560      -3.58693879376      -1.02923801430     h                   
-0.590317901302       2.80089301819       2.51690249640     o                   
 -2.38329604604       2.12512989998       2.09947782760     h                   
  2.15672739407       1.54163390072      -2.09423802969     o                   
  3.00384665305       2.30784226955      -3.52444006151     h                   
  3.43224562226      -1.89777035303       1.75773299376     h                   
  40.0000000000       0.00000000000                                             
ti        0.132412082251E-03 -0.240971276373E-03 -0.170256740664E-03            
o         0.228955296225E-03 -0.652425756737E-04  0.181272848950E-03            
o         0.829725671829E-04  0.871738456633E-04 -0.119626417932E-03            
h        -0.227088583010E-02  0.322705898142E-02  0.106311843909E-02            
o        -0.163417980541E-03  0.448425814579E-03  0.104060789999E-02            
h        -0.555539091909E-02  0.110722596879E-02 -0.379766804937E-02            
o        -0.128168003636E-03 -0.216086541296E-03 -0.504593114487E-03            
h         0.178937356059E-03  0.177344490635E-02  0.117244374313E-03            
h         0.103206624783E-02  0.130751852111E-02  0.122150712621E-02            
 
    50 energy records for statistics read from mdlog.2                                                                         
       Total Energy (H):
              current value   -1151.88722637    
                    average   -1151.88362059    
         standard deviation   0.353144556323E-02
                      drift  -0.878491072399E-05
        jump from last step  -0.828239093971E-02
 
     Kinetic Energy (H):
              current value   0.847471925926E-01
                    average   0.132566153560    
         standard deviation   0.188467918715E-01
                      drift   0.377568553271E-03
 avg. quasi-temperature (K)    3986.40647852    
      number of constraints       0
 
         Pressure (GPa):
              current value    0.00000000000    
                    average    0.00000000000    
 
 
   approx integration error   0.387259642569E-01
 
Estimated integration error by reading last steps from mdlog.2                  
 
Generating $log data for last completed MD step:                                
t=   19880.0000000                                                              
 0.129331263957E-01 -0.829143548359E-01 -0.160585296535E-01 ti                  
  1.68010507365      -2.20271069324       1.53479427185     o                   
 -3.28663985244      -1.79793564192      -1.84796050136     o                   
 -4.38179051424      -3.71328298605      -1.07086069342     h                   
-0.583919842613       2.78333647594       2.47616113860     o                   
 -2.16579417124       2.08178034501       2.24816221950     h                   
  2.16174536337       1.55009401244      -2.07448245353     o                   
  2.99684098757       2.23840924538      -3.52903035436     h                   
  3.39183868293      -1.94896166140       1.70990916032     h                   
  40.0000000000       0.00000000000                                             
ti        0.165421094613E-03 -0.274791945426E-03 -0.136713389125E-03            
o         0.232325783510E-03  0.162678666824E-04  0.134467467803E-03            
o         0.786655010058E-04  0.163966406850E-03 -0.213089328735E-03            
h        -0.356441390348E-02  0.103729230127E-02  0.178458553648E-02            
o        -0.233587044838E-03  0.495390799295E-03  0.107512109213E-02            
h        -0.389927250492E-02  0.114470149446E-02 -0.400019578143E-02            
o        -0.100935351988E-03 -0.179534661695E-03 -0.515639937538E-03            
h         0.212832511537E-03  0.173850201547E-02  0.120325452391E-03            
h        -0.236657654015E-03  0.126357232885E-02  0.959448921650E-03            
 0.847471925926E-01  -1151.97197357       0.00000000000                         
 0.781870110934E-01 -0.849856252443E-01  0.653383219227E-01                     
 0.599869221915E-02  0.584224569804E-01 -0.313234248195E-01                     
-0.185709315395E-02  0.573398922154E-01 -0.699966433520E-01                     
-0.616315196732E-01 -0.974433739863E-01  0.341768025371E-01                     
-0.536897582362E-01  0.411791368480E-01  0.412592708893E-01                     
 0.706612740064E-01  0.280034336292E-02 -0.130036726393E-01                     
 0.178737556020E-01  0.233088583430E-01 -0.158589220443E-01                     
 0.173134602393E-02  0.122942060877E-03  0.255774422819E-03                     
-0.572737078858E-01 -0.744630582602E-03 -0.108475069247E-01                     
 
Generated $current data for new MD step:                                        
t=   19920.0000000                                                              
 0.181172577295E-01 -0.923487412088E-01 -0.227243360442E-01 ti                  
  1.68906901640      -2.20526503779       1.54189137538     o                   
 -3.28339135217      -1.79452265530      -1.85264405479     o                   
 -4.47069909560      -3.58693879376      -1.02923801430     h                   
-0.590317901302       2.80089301819       2.51690249640     o                   
 -2.38329604604       2.12512989998       2.09947782760     h                   
  2.15672739407       1.54163390072      -2.09423802969     o                   
  3.00384665305       2.30784226955      -3.52444006151     h                   
  3.43224562226      -1.89777035303       1.75773299376     h                   
  40.0000000000       0.00000000000                                             
ti        0.132412082251E-03 -0.240971276373E-03 -0.170256740664E-03            
o         0.228955296225E-03 -0.652425756737E-04  0.181272848950E-03            
o         0.829725671829E-04  0.871738456633E-04 -0.119626417932E-03            
h        -0.227088583010E-02  0.322705898142E-02  0.106311843909E-02            
o        -0.163417980541E-03  0.448425814579E-03  0.104060789999E-02            
h        -0.555539091909E-02  0.110722596879E-02 -0.379766804937E-02            
o        -0.128168003636E-03 -0.216086541296E-03 -0.504593114487E-03            
h         0.178937356059E-03  0.177344490635E-02  0.117244374313E-03            
h         0.103206624783E-02  0.130751852111E-02  0.122150712621E-02            
 
Logging MD run data ($log) to file mdlog.2                                                                         
Writing data for next step ($current) to mdlog.2                                                                         

    2018-03-08 01:03:46.618 

         total cpu-time :   1.63 seconds
         total wall-time :   1.63 seconds

          ******************************************************



    ------------------------------------------------------------------------
         total  cpu-time :   1.63 seconds
         total wall-time :   1.63 seconds
    ------------------------------------------------------------------------

   ****  frog : all done  ****


    2018-03-08 01:03:46.618 

 operating system is UNIX !
 hostname is c-8-252.local

 ridft (c-8-252.local) : TURBOMOLE V7.1 ( ) 5 Apr 2016 at 11:29:09
 Copyright (C) 2016 TURBOMOLE GmbH, Karlsruhe


    2018-03-08 01:03:46.951 



                                  r i d f t

                        DFT program with RI approximation 
                                for coulomb part 




                                                 
                                 References:     
                                                 
          TURBOMOLE:                             
              R. Ahlrichs, M. Baer, M. Haeser, H. Horn, and
              C. Koelmel
              Electronic structure calculations on workstation
              computers: the program system TURBOMOLE
              Chem. Phys. Lett. 162: 165 (1989)
          Density Functional:                              
              O. Treutler and R. Ahlrichs                      
              Efficient Molecular Numerical Integration Schemes
              J. Chem. Phys. 102: 346 (1995)                   
          Parallel Version:                                
              Performance of parallel TURBOMOLE for Density    
              Functional Calculations                          
              M. v. Arnim and R. Ahlrichs                      
              J. Comp. Chem. 19: 1746 (1998)                   
          RI-J Method:                                     
              Auxiliary Basis Sets to approximate Coulomb      
              Potentials                                       
              Chem. Phys. Lett. 240: 283 (1995)                
              K. Eichkorn, O. Treutler, H. Oehm, M. Haeser     
              and R. Ahlrichs                                  
              Chem. Phys. Lett. 242: 652 (1995)                
                                                           
              Auxiliary Basis Sets for Main Row Atoms and their
              Use to approximate Coulomb Potentials            
              K. Eichkorn, F. Weigend, O. Treutler and         
              R. Ahlrichs                                      
              Theo. Chem. Acc. 97: 119 (1997)                   
                                                           
              Accurate Coulomb-fitting basis sets for H to Rn 
              F. Weigend                                        
              Phys. Chem. Chem. Phys. 8: 1057 (2006)            
                                                           
          Multipole accelerated RI-J (MARI-J):             
              Fast evaluation of the Coulomb potential for     
              electron densities using multipole accelerated   
              resolution of identity approximation             
              M. Sierka, A. Hogekamp and R. Ahlrichs           
              J. Chem. Phys. 118: 9136 (2003)                  
          RI-JK Method:                                     
              A fully direct RI-HF algorithm: Implementation,
              optimised auxiliary basis sets, demonstration of
              accuracy and efficiency                         
              F. Weigend                                      
              Phys. Chem. Chem. Phys. 4: 4285 (2002)           
          Two-component HF and DFT with spin-orbit coupling:  
              Self-consistent treatment of spin-orbit         
              interactions with efficient Hartree-Fock and    
              density functional methods                      
              M. K. Armbruster, F. Weigend, C. van Wüllen and 
              W. Klopper                                      
              Phys. Chem. Chem. Phys. 10: 1748 (2008)         
          Relativistic all-electron 2c calculations           
              An efficient implementation of two-component    
              relativistic exact-decoupling methods for large 
              molecules                                       
              D. Peng, N. Middendorf, F. Weigend, M. Reiher   
              J. Chem. Phys. 138, 184105 (2013)               
                                         


 


              +--------------------------------------------------+
              |      general information about current run       |
              +--------------------------------------------------+

 

 DENSITY CONVERGENCE CHECK SWITCHED ON !
 SCF CONVERGENCE IF RMS(delta[D]) <     0.1000000000E-06

 PBE0 hybrid functional
 exchange:    3/4 (LDA+PBE) + 1/4 HF
 correlation: LDA (PW) + PBE
 A Hybrid-DFT calculation using the RI-J approximation will be carried out.
 Allocatable memory for RI due to $ricore (MB):         500


              +--------------------------------------------------+
              | Atomic coordinate, charge and isotop information |
              +--------------------------------------------------+

                    atomic coordinates            atom    charge  isotop
          0.01811726   -0.09234874   -0.02272434    ti    22.000     0
          1.68906902   -2.20526504    1.54189138    o      8.000     0
         -3.28339135   -1.79452266   -1.85264405    o      8.000     0
         -4.47069910   -3.58693879   -1.02923801    h      1.000     0
         -0.59031790    2.80089302    2.51690250    o      8.000     0
         -2.38329605    2.12512990    2.09947783    h      1.000     0
          2.15672739    1.54163390   -2.09423803    o      8.000     0
          3.00384665    2.30784227   -3.52444006    h      1.000     0
          3.43224562   -1.89777035    1.75773299    h      1.000     0
 
       center of nuclear mass  :   -0.00000005   -0.00000002    0.00000007
       center of nuclear charge:   -0.00418321   -0.00588785   -0.00519152

              +--------------------------------------------------+
              |               basis set information              |
              +--------------------------------------------------+

              we will work with the 1s 3p 5d 7f 9g ... basis set
              ...i.e. with spherical basis functions...

   type   atoms  prim   cont   basis
   ---------------------------------------------------------------------------
    ti       1     73     31   def2-SVP   [5s3p2d1f|14s9p5d1f]
    o        4     24     14   def2-SVP   [3s2p1d|7s4p1d]
    h        4      7      5   def2-SVP   [2s1p|4s1p]
   ---------------------------------------------------------------------------
   total:    9    197    107
   ---------------------------------------------------------------------------

   total number of primitive shells          :   46
   total number of contracted shells         :   47
   total number of cartesian basis functions :  116
   total number of SCF-basis functions       :  107


 integral neglect threshold       :  0.29E-10
 integral storage threshold THIZE :  0.10E-04
 integral storage threshold THIME :         5

 RI-J AUXILIARY BASIS SET information:

              we will work with the 1s 3p 5d 7f 9g ... basis set
              ...i.e. with spherical basis functions...

   type   atoms  prim   cont   basis
   ---------------------------------------------------------------------------
    ti       1    107     89   def2-SVP   [8s5p5d2f3g|19s5p5d3f3g]
    o        4     70     49   def2-SVP   [6s4p3d1f1g|12s5p4d2f1g]
    h        4     16     11   def2-SVP   [3s1p1d|5s2p1d]
   ---------------------------------------------------------------------------
   total:    9    451    329
   ---------------------------------------------------------------------------

   total number of primitive shells          :   67
   total number of contracted shells         :  103
   total number of cartesian basis functions :  410
   total number of SCF-basis functions       :  329


 symmetry group of the molecule :   c1 

 the group has the following generators :
   c1(z)

    1 symmetry operations found

 there are 1 real representations :   a   

 maximum number of shells which are related by symmetry :  1


    mo occupation :
   irrep   mo's   occupied
    a      107       29
 
 number of basis functions   :          107
 number of occupied orbitals :           29
 
  
           ------------------
           density functional
           ------------------
 PBE0 hybrid functional
 exchange:    3/4 (LDA+PBE) + 1/4 HF
 correlation: LDA (PW) + PBE
 iterations will be done with small grid
  
 spherical integration : Lebedev's spherical grid
 spherical gridsize    :           3
    i.e. gridpoints    :         302
 value for diffuse not defined
 radial integration    : Chebyshev 2nd kind (scaling 3)
 radial gridsize       :           3
 integration cells     :           9
 partition function    : becke
 partition sharpness   :           3
  

 biggest AO integral is expected to be    13.493451081
  
           ------------------------
               RI-J - INFORMATION
           ------------------------
 Contributions to RI integral batches: 
  neglected integral batches:          77
  direct contribution:                  0
  memory contribution:        1051
 Memory core needed for (P|Q) and Cholesky      1 MByte
 Memory core minimum needed except of (P|Q)     1 MByte
 Total minimum memory core needed (sum)         1 MByte
  
 ****************************************
 Memory allocated for RI-J    22 MByte
 ****************************************
                                            

          ------------------------
          nuclear repulsion energy  :   311.533895392    
          ------------------------

 
          -----------------
          -S,T+V- integrals
          -----------------

 1e-integrals will be neglected if expon. factor < 0.288100E-11
 
   Difference densities algorithm switched on.
   The maximal number of linear combinations of
   difference densities is          20 .

 DIIS switched on: error vector is FDS-SDF
 Max. Iterations for DIIS is     :   4
 DIIS matrix (see manual) 
    Scaling factor of diagonals  :  1.200
    threshold for scaling factor :  0.000

 scf convergence criterion : increment of total energy < .1000000D-06
                  and increment of one-electron energy < .1000000D-03

  MOs are in ASCII format !


 automatic virtual orbital shift switched on 
      shift if e(lumo)-e(homo) < 0.10000000    


 reading orbital data $scfmo  from file mos
 orbital characterization : scfconv=7

 DSCF restart information will be dumped onto file mos


 Starting SCF iterations

          Overall gridpoints after grid construction =         13501

 ITERATION  ENERGY          1e-ENERGY        2e-ENERGY     RMS[dD(SAO)]   TOL
   1  -1151.9697581290    -2200.9837971     737.48014359    0.000D+00 0.287D-10
                            Exc = -58.4486139337     Coul =  814.682756369    
                            exK = -18.7539988490    
                              N = 58.000330923    
                            current damping = 0.700
 
          max. resid. norm for Fia-block=  4.045D-02 for orbital     16a         
          max. resid. fock norm         =  1.538D-01 for orbital    106a         

 ITERATION  ENERGY          1e-ENERGY        2e-ENERGY     RMS[dD(SAO)]   TOL
   2  -1151.9751338470    -2200.9418903     737.43286103    0.131D-02 0.182D-10
                            Exc = -58.4318881776      Eck =  795.864749209    
                              N = 58.000328387    
                            current damping = 0.650
 
          Norm of current diis error: 0.73786E-01
          max. resid. norm for Fia-block=  1.891D-02 for orbital     16a         
          max. resid. fock norm         =  6.709D-02 for orbital    106a         

 ITERATION  ENERGY          1e-ENERGY        2e-ENERGY     RMS[dD(SAO)]   TOL
   3  -1151.9759701183    -2200.6613183     737.15145277    0.800D-03 0.144D-10
                            Exc = -58.4382441961      Eck =  795.589696963    
                              N = 58.000338516    
                            current damping = 0.500
 
          Norm of current diis error: 0.69228E-01
          max. resid. norm for Fia-block=  8.572D-03 for orbital     20a         
          max. resid. fock norm         =  2.586D-02 for orbital    105a         

 ITERATION  ENERGY          1e-ENERGY        2e-ENERGY     RMS[dD(SAO)]   TOL
   4  -1151.9766751826    -2200.9580026     737.44743201    0.463D-03 0.131D-10
                            Exc = -58.4326604006      Eck =  795.880092406    
                              N = 58.000331019    
                            current damping = 0.550
 
          Norm of current diis error: 0.21332E-01
          max. resid. norm for Fia-block=  2.806D-03 for orbital     20a         
          max. resid. fock norm         =  8.612D-03 for orbital    105a         

 ITERATION  ENERGY          1e-ENERGY        2e-ENERGY     RMS[dD(SAO)]   TOL
   5  -1151.9767130833    -2200.7746131     737.26400459    0.223D-03 0.126D-10
                            Exc = -58.4349115870      Eck =  795.698916174    
                              N = 58.000332982    
                            current damping = 0.600
 
          Norm of current diis error: 0.19786E-01
          max. resid. norm for Fia-block=  1.232D-03 for orbital     29a         
          max. resid. fock norm         =  3.220D-03 for orbital    105a         
          mo-orthogonalization: Cholesky decomposition

 ITERATION  ENERGY          1e-ENERGY        2e-ENERGY     RMS[dD(SAO)]   TOL
   6  -1151.9767706036    -2200.8182853     737.30761931    0.970D-04 0.122D-10
                            Exc = -58.4325861618      Eck =  795.740205476    
                              N = 58.000332315    
                            current damping = 0.650
 
          Norm of current diis error: 0.43698E-02
          max. resid. norm for Fia-block=  5.018D-04 for orbital     16a         
          max. resid. fock norm         =  1.279D-03 for orbital    105a         

 ITERATION  ENERGY          1e-ENERGY        2e-ENERGY     RMS[dD(SAO)]   TOL
   7  -1151.9767738744    -2200.8457659     737.33509661    0.333D-04 0.119D-10
                            Exc = -58.4331742045      Eck =  795.768270813    
                              N = 58.000333237    
                            current damping = 0.500
 
          Norm of current diis error: 0.20585E-02
          max. resid. norm for Fia-block=  2.802D-04 for orbital     20a         
          max. resid. fock norm         =  4.545D-04 for orbital    105a         

 ITERATION  ENERGY          1e-ENERGY        2e-ENERGY     RMS[dD(SAO)]   TOL
   8  -1151.9767743560    -2200.8517113     737.34104154    0.203D-04 0.116D-10
                            Exc = -58.4328151360      Eck =  795.773856672    
                              N = 58.000332339    
                            current damping = 0.350
 
          Norm of current diis error: 0.15999E-02
          max. resid. norm for Fia-block=  1.488D-04 for orbital     26a         
          max. resid. fock norm         =  2.086D-04 for orbital     85a         

 ITERATION  ENERGY          1e-ENERGY        2e-ENERGY     RMS[dD(SAO)]   TOL
   9  -1151.9767747085    -2200.8417657     737.33109564    0.121D-04 0.114D-10
                            Exc = -58.4328848660      Eck =  795.763980510    
                              N = 58.000332664    
                            current damping = 0.400
 
          Norm of current diis error: 0.72363E-03
          max. resid. norm for Fia-block=  5.704D-05 for orbital     20a         
          max. resid. fock norm         =  9.453D-05 for orbital     27a         

 ITERATION  ENERGY          1e-ENERGY        2e-ENERGY     RMS[dD(SAO)]   TOL
  10  -1151.9767747735    -2200.8436931     737.33302290    0.526D-05 0.109D-10
                            Exc = -58.4328691615      Eck =  795.765892057    
                              N = 58.000332732    
                            current damping = 0.450
 
          Norm of current diis error: 0.36617E-03
          max. resid. norm for Fia-block=  3.989D-05 for orbital     29a         
          max. resid. fock norm         =  6.332D-05 for orbital     28a         
          mo-orthogonalization: Cholesky decomposition

 ITERATION  ENERGY          1e-ENERGY        2e-ENERGY     RMS[dD(SAO)]   TOL
  11  -1151.9767747821    -2200.8463169     737.33564673    0.364D-05 0.107D-10
                            Exc = -58.4328613374      Eck =  795.768508070    
                              N = 58.000332701    
                            current damping = 0.300
 
          Norm of current diis error: 0.32086E-03
          max. resid. norm for Fia-block=  2.008D-05 for orbital     19a         
          max. resid. fock norm         =  2.295D-05 for orbital    102a         

 ITERATION  ENERGY          1e-ENERGY        2e-ENERGY     RMS[dD(SAO)]   TOL
  12  -1151.9767747961    -2200.8451618     737.33449163    0.173D-05 0.104D-10
                            Exc = -58.4328899026      Eck =  795.767381531    
                              N = 58.000332670    
                            current damping = 0.350
 
          Norm of current diis error: 0.74218E-04
          max. resid. norm for Fia-block=  6.500D-06 for orbital     29a         
          max. resid. fock norm         =  8.801D-06 for orbital     54a         

 ITERATION  ENERGY          1e-ENERGY        2e-ENERGY     RMS[dD(SAO)]   TOL
  13  -1151.9767747968    -2200.8447943     737.33412409    0.701D-06 0.977D-11
                            Exc = -58.4328822942      Eck =  795.767006380    
                              N = 58.000332693    
                            current damping = 0.200
 
          Norm of current diis error: 0.46758E-04
          max. resid. norm for Fia-block=  5.227D-06 for orbital     26a         
          max. resid. fock norm         =  6.295D-06 for orbital     20a         

 ITERATION  ENERGY          1e-ENERGY        2e-ENERGY     RMS[dD(SAO)]   TOL
  14  -1151.9767747974    -2200.8451159     737.33444571    0.479D-06 0.951D-11
                            Exc = -58.4328754669      Eck =  795.767321174    
                              N = 58.000332679    
                            current damping = 0.250
 
          Norm of current diis error: 0.44476E-04
          max. resid. norm for Fia-block=  2.898D-06 for orbital     26a         
          max. resid. fock norm         =  3.601D-06 for orbital     28a         

 ENERGY & DENSITY CONVERGED !

          Overall gridpoints after grid construction =         48664

 ITERATION  ENERGY          1e-ENERGY        2e-ENERGY     RMS[dD(SAO)]   TOL
  15  -1151.9762948118    -2200.8449849     737.33479469    0.251D-06 0.930D-11
                            Exc = -58.4324003397      Eck =  795.767195029    
                              N = 57.999951810    
                            current damping = 0.300
 
          Norm of current diis error: 0.70206E-05
          max. resid. norm for Fia-block=  1.256D-06 for orbital     29a         
          max. resid. fock norm         =  1.304D-06 for orbital     29a         

 End of SCF iterations

   convergence criteria satisfied after   15 iterations


                  ------------------------------------------ 
                 |  total energy      =  -1151.97629481178  |
                  ------------------------------------------ 
                 :  kinetic energy    =   1147.81853096995  :
                 :  potential energy  =  -2299.79482578173  :
                 :  virial theorem    =      1.99639075573  :
                 :  wavefunction norm =      1.00000000000  :
                  .......................................... 


 orbitals $scfmo  will be written to file mos

    irrep                 25a         26a         27a         28a         29a   
 eigenvalues H         -0.35934    -0.32973    -0.29228    -0.28882    -0.27447
            eV          -9.7783     -8.9724     -7.9533     -7.8592     -7.4689
 occupation              2.0000      2.0000      2.0000      2.0000      2.0000 

    irrep                 30a         31a         32a         33a         34a   
 eigenvalues H         -0.08179    -0.07256    -0.06178    -0.04360    -0.02072
            eV          -2.2255     -1.9745     -1.6810     -1.1863     -0.5638
 
 
 
 
 ==============================================================================
                           electrostatic moments
 ==============================================================================

 reference point for electrostatic moments:    0.00000   0.00000   0.00000

 
              nuc           elec       ->  total
 ------------------------------------------------------------------------------
                          charge      
 ------------------------------------------------------------------------------
          58.000000     -58.000000      -0.000000
 
 ------------------------------------------------------------------------------
                       dipole moment  
 ------------------------------------------------------------------------------
   x      -0.242626       1.117013       0.874387
   y      -0.341495      -0.341802      -0.683298
   z      -0.301108       0.012877      -0.288231
 
   | dipole moment | =     1.1465 a.u. =     2.9142 debye 
 
 ------------------------------------------------------------------------------
                     quadrupole moment
 ------------------------------------------------------------------------------
  xx     195.546366    -219.208586     -23.662221
  yy     172.938735    -203.479220     -30.540485
  zz     153.232603    -183.888981     -30.656378
  xy      42.063229     -41.213014       0.850216
  xz      16.513519     -20.170803      -3.657284
  yz      26.692891     -31.828328      -5.135437
 
     1/3  trace=     -28.286361
     anisotropy=      13.020561
 
 ==============================================================================
 


    ------------------------------------------------------------------------
         total  cpu-time :  13.53 seconds
         total wall-time :  13.57 seconds
    ------------------------------------------------------------------------

   ****  ridft : all done  ****


    2018-03-08 01:04:00.236 

fine, there is no data group "$actual step"
next step = rdgrad
 hostname is c-8-252.local
           Doing BLAS/Lapack in the master proc. with  8 CPUs.
           SMPCPUS    set: Shared-memory Parallelization with   8 CPUs.

           SMP Parallelization Reference:
           C. van Wullen, J. Comput. Chem. 32 (2011) 1195--1201

 egrad (c-8-252.local) : TURBOMOLE V7.1 ( ) 5 Apr 2016 at 11:29:09
 Copyright (C) 2016 TURBOMOLE GmbH, Karlsruhe


    2018-03-08 01:04:00.643 




                               e g r a d

                       quantum chemistry group
                       university of karlsruhe
                               germany


             integral direct evaluation of excited state
                     and polarizability gradients
                 and first-order nonadiabatic couplings



          references (see also programs escf, dscf and ridft) 

          review 
          F. Furche and D. Rappoport,  
          "Density functional methods for excited states: 
          equilibrium structure and electronic spectra",
          ch. III of "Computational Photochemistry", ed. by 
          M. Olivucci, vol. 16 of "Theoretical and Computational 
          Chemistry", Elsevier, Amsterdam, 2005.

          RI-J method 
          D. Rappoport and F. Furche, 
          J. Chem. Phys. 122 (2005), 064105.

          Lagrangian method, implementation, benchmarks 
          F. Furche and R. Ahlrichs,
          J. Chem. Phys. 117 (2002), 7433;
          J. Chem. Phys. 121 (2004), 12772 (E).

          Polarizability derivatives, Raman intensities 
          D. Rappoport and F. Furche, 
          J. Chem. Phys. 126 (2007), 201104.

          First-order nonadiabatic couplings 
          R. Send and F. Furche, 
          J. Chem. Phys. 132 (2010), 044107.
                                     




              +--------------------------------------------------+
              | Atomic coordinate, charge and isotop information |
              +--------------------------------------------------+

                    atomic coordinates            atom    charge  isotop
          0.01811726   -0.09234874   -0.02272434    ti    22.000     0
          1.68906902   -2.20526504    1.54189138    o      8.000     0
         -3.28339135   -1.79452266   -1.85264405    o      8.000     0
         -4.47069910   -3.58693879   -1.02923801    h      1.000     0
         -0.59031790    2.80089302    2.51690250    o      8.000     0
         -2.38329605    2.12512990    2.09947783    h      1.000     0
          2.15672739    1.54163390   -2.09423803    o      8.000     0
          3.00384665    2.30784227   -3.52444006    h      1.000     0
          3.43224562   -1.89777035    1.75773299    h      1.000     0
 
       center of nuclear mass  :   -0.00000005   -0.00000002    0.00000007
       center of nuclear charge:   -0.00418321   -0.00588785   -0.00519152

              +--------------------------------------------------+
              |               basis set information              |
              +--------------------------------------------------+

              we will work with the 1s 3p 5d 7f 9g ... basis set
              ...i.e. with spherical basis functions...

   type   atoms  prim   cont   basis
   ---------------------------------------------------------------------------
    ti       1     73     31   def2-SVP   [5s3p2d1f|14s9p5d1f]
    o        4     24     14   def2-SVP   [3s2p1d|7s4p1d]
    h        4      7      5   def2-SVP   [2s1p|4s1p]
   ---------------------------------------------------------------------------
   total:    9    197    107
   ---------------------------------------------------------------------------

   total number of primitive shells          :   46
   total number of contracted shells         :   47
   total number of cartesian basis functions :  116
   total number of SCF-basis functions       :  107


 residuum convergence criterium   :  0.10E-04


 integral neglect threshold       :  0.29E-10
 integral storage threshold THIZE :  0.10E-04
 integral storage threshold THIME :         5

 
             FOUND RI-J FLAG !
 
  
 AUXILIARY BASIS SET information:

              we will work with the 1s 3p 5d 7f 9g ... basis set
              ...i.e. with spherical basis functions...

   type   atoms  prim   cont   basis
   ---------------------------------------------------------------------------
    ti       1    107     89   def2-SVP   [8s5p5d2f3g|19s5p5d3f3g]
    o        4     70     49   def2-SVP   [6s4p3d1f1g|12s5p4d2f1g]
    h        4     16     11   def2-SVP   [3s1p1d|5s2p1d]
   ---------------------------------------------------------------------------
   total:    9    451    329
   ---------------------------------------------------------------------------

   total number of primitive shells          :   67
   total number of contracted shells         :  103
   total number of cartesian basis functions :  410
   total number of SCF-basis functions       :  329

 RPA SINGLET-EXCITATION-CALCULATION 
 
             FOUND DFT-FLAG !
 
 
 FOUND Nonadiabatic Coupling-FLAG !
 Note: the sign convention for NACME changed
 such that <0|d/dx|n> is now computed.

 symmetry group of the molecule :   c1 

 the group has the following generators :
   c1(z)

    1 symmetry operations found

 there are 1 real representations :   a   

 maximum number of shells which are related by symmetry :  1

 IRREP of excited state :   a   
 

 determining totally symmetric integral contributions 
    - equivalent to irreducible tensor elements - 
 which can be formed within each triple of representations :

             representation triple      contributions

              a     a     a               1

    mo occupation :
   irrep   mo's   occupied
    a      107       29
 
 number of basis functions   :          107
 number of occupied orbitals :           29
 
  
           ------------------
           density functional
           ------------------
 PBE0 hybrid functional
 exchange:    3/4 (LDA+PBE) + 1/4 HF
 correlation: LDA (PW) + PBE
 iterations will be done with small grid
  
 spherical integration : Lebedev's spherical grid
 spherical gridsize    :           3
    i.e. gridpoints    :         302
 value for diffuse not defined
 radial integration    : Chebyshev 2nd kind (scaling 3)
 radial gridsize       :           3
 integration cells     :           9
 partition function    : becke
 partition sharpness   :           3
  
 
 Derivatives of quadrature weights will be included
 
  
           ----------------------
               RI - INFORMATION
           ----------------------

 biggest AO integral is expected to be    13.493451081

 Threshold for integral neglect (rithr2):   0.29E-10
 Threshold for integral neglect (rithr1):   0.29E-10

 Contributions to RI integral batches: 
  neglected integral batches:          71
  direct contribution:                  0
  memory contribution:        1057
 Core memory available (ricore)            500 MiB
 Core memory needed for (P|Q) and Cholesky 1 MiB
 Core memory used for integrals            21 MiB
  
 ****************************************
 Memory allocated for RIDFT 22 MiB
 ****************************************
                                            
  MOs are in ASCII format !


 reading orbital data $scfmo  from file mos
 orbital characterization : scfconv=7
 preparing numerical integration ....
          Overall gridpoints after grid construction =         13501
 Ordering of quadrature gridpoints disabled.

 Calculating ground state density on molecular grid

 Integral of ground state density: N =   58.00033268188453    



 number of non-frozen orbitals          :   107
 number of non-frozen occupied orbitals :    29



                        -------------------
                         excitation vector 
                        -------------------


 dimension of super-tensorspace: 2

          IRREP   tensor space dimension   number of roots

           a              2262                   1

 maximum number of Davidson iterations set to   25


 machine precision: 2.22D-16


 logfile sing_a    exists already

 found      1 converged vectors on sing_a   
 read       1 vectors from logfile sing_a   



                       Nonorthonormal Krylov Space Iteration


 total number of roots to be determined:   1


 maximum core memory set to   500 MB,
 corresponding to     2317 vectors in CAO basis


 maximum number of simultaneously treated vectors (including degeneracy):        1


 Iteration IRREP Converged      Max. Euclidean
                 roots          residual norm

    1       a        0        2.304885201427883D-01
 
    2       a        0        6.051639873566275D-02
 
    3       a        0        4.059315698561979D-02
 
    4       a        0        1.788726320679910D-02
 
    5       a        0        1.631615887638641D-02
 
    6       a        0        1.433308689252490D-02
 
    7       a        0        1.225060886160794D-02
 
    8       a        0        1.343933140083267D-02
 
    9       a        0        1.461665974751042D-02
 
   10       a        0        1.336145621391112D-02
 
   11       a        0        1.197206604308750D-02
 
   12       a        0        6.152993363050933D-03
 
   13       a        0        3.882771275023346D-03
 
   14       a        0        3.073518959241557D-03
 
   15       a        0        1.831755028360983D-03
 
   16       a        0        1.056552854665106D-03
 
   17       a        0        6.207801503368635D-04
 
   18       a        0        2.250895334882993D-04
 
   19       a        0        9.197554797565252D-05
 
   20       a        0        6.023914617330573D-05
 
   21       a        0        5.069556546789196D-05
 
   22       a        0        5.046927898896281D-05
 
   23       a        0        3.108752989726866D-05
 
   24       a        0        1.817046048120643D-05
 
   25       a        0        1.445990455640640D-05
 


 Warning! No convergence within  25 iterations.
 Unless you have specified a very low $escfiterlimit/$forceiterlimit, 
 this is a reason to worry!



 IRREP   Vector     Eigenvalue           Euclidean residual norm

  a         1    1.393794602575325D-01    1.445990455640640D-05
 

 Deallocation failure for file unit arrays in <egrad>


========================
 internal module stack: 
------------------------
    egrad
========================

  abnormal termination
 egrad ended abnormally
error in gradient step (1)
