
Sun Jan 28 15:14:14 PST 2018
jobex WAS CALLED AS: jobex -ri -c 400 -outfile opt.out
AN OPTIMIZATION WITH MAX. 400 CYCLES WILL BE PERFORMED
CONVERGENCY CRITERION FOR TOTAL SCF-ENERGY IS 10**(-6)
CONVERGENCY CRITERION FOR MAXIMUM NORM OF SCF-ENERGY GRADIENT IS 10**(-3)
CONVERGENCY CRITERION FOR MAXIMUM NORM OF BASIS SET GRADIENT IS 10**(-3)
PROCEDURE WILL START WITH A dscf like STEP
LOAD MODULES WILL BE TAKEN FROM DIRECTORY /beegfs/modfac/apps/TURBOMOLE/7.2-official/bin/em64t-unknown-linux-gnu_smp
DSCF  = /beegfs/modfac/apps/TURBOMOLE/7.2-official/bin/em64t-unknown-linux-gnu_smp/ridft
GRAD  = /beegfs/modfac/apps/TURBOMOLE/7.2-official/bin/em64t-unknown-linux-gnu_smp/rdgrad
STATPT = /beegfs/modfac/apps/TURBOMOLE/7.2-official/bin/em64t-unknown-linux-gnu_smp/statpt

STARTING ridft ON 8 PROCESSORS!
RUNNING PROGRAM /beegfs/modfac/apps/TURBOMOLE/7.2-official/bin/em64t-unknown-linux-gnu_smp/ridft_mpi.
PLEASE WAIT UNTIL ridft HAS FINISHED.
 c-8-39.local ( 1 ) 
 c-8-39.local ( 2 ) 
 c-8-39.local ( 3 ) 
 c-8-39.local ( 4 ) 
 c-8-39.local ( 5 ) 
 c-8-39.local ( 6 ) 
 c-8-39.local ( 7 ) 
 this is node-proc. number 0 running on node c-8-39.local
 the total number of node-proc. spawned is   8
 GA version: using    8 (total) on    1 nhosts.
 operating system is UNIX !

 ridft (c-8-39.local) : TURBOMOLE V7.2 ( 21285 ) 30 Jun 2017 at 12:03:23
 Copyright (C) 2017 TURBOMOLE GmbH, Karlsruhe


    2018-01-28 15:14:15.369 



                                  r i d f t

                        DFT program with RI approximation 
                                for coulomb part 




                                                 
                                 References:     
                                                 
          TURBOMOLE:                             
              R. Ahlrichs, M. Baer, M. Haeser, H. Horn, and
              C. Koelmel
              Electronic structure calculations on workstation
              computers: the program system TURBOMOLE
              Chem. Phys. Lett. 162: 165 (1989)
          Density Functional:                              
              O. Treutler and R. Ahlrichs                      
              Efficient Molecular Numerical Integration Schemes
              J. Chem. Phys. 102: 346 (1995)                   
          Parallel Version:                                
              Performance of parallel TURBOMOLE for Density    
              Functional Calculations                          
              M. v. Arnim and R. Ahlrichs                      
              J. Comp. Chem. 19: 1746 (1998)                   
          RI-J Method:                                     
              Auxiliary Basis Sets to approximate Coulomb      
              Potentials                                       
              Chem. Phys. Lett. 240: 283 (1995)                
              K. Eichkorn, O. Treutler, H. Oehm, M. Haeser     
              and R. Ahlrichs                                  
              Chem. Phys. Lett. 242: 652 (1995)                
                                                           
              Auxiliary Basis Sets for Main Row Atoms and their
              Use to approximate Coulomb Potentials            
              K. Eichkorn, F. Weigend, O. Treutler and         
              R. Ahlrichs                                      
              Theo. Chem. Acc. 97: 119 (1997)                   
                                                           
              Accurate Coulomb-fitting basis sets for H to Rn 
              F. Weigend                                        
              Phys. Chem. Chem. Phys. 8: 1057 (2006)            
                                                           
          Multipole accelerated RI-J (MARI-J):             
              Fast evaluation of the Coulomb potential for     
              electron densities using multipole accelerated   
              resolution of identity approximation             
              M. Sierka, A. Hogekamp and R. Ahlrichs           
              J. Chem. Phys. 118: 9136 (2003)                  
          RI-JK Method:                                     
              A fully direct RI-HF algorithm: Implementation,
              optimised auxiliary basis sets, demonstration of
              accuracy and efficiency                         
              F. Weigend                                      
              Phys. Chem. Chem. Phys. 4: 4285 (2002)           
          Two-component HF and DFT with spin-orbit coupling:  
              Self-consistent treatment of spin-orbit         
              interactions with efficient Hartree-Fock and    
              density functional methods                      
              M. K. Armbruster, F. Weigend, C. van Wüllen and 
              W. Klopper                                      
              Phys. Chem. Chem. Phys. 10: 1748 (2008)         
          Relativistic all-electron 2c calculations           
              An efficient implementation of two-component    
              relativistic exact-decoupling methods for large 
              molecules                                       
              D. Peng, N. Middendorf, F. Weigend, M. Reiher   
              J. Chem. Phys. 138, 184105 (2013)               
                                         


 ********** GlobalArray OPTION SETTINGS : **********
 *****************************************************


              +--------------------------------------------------+
              |      general information about current run       |
              +--------------------------------------------------+

 

 SCF run will be profiled !

 TPSS global hybrid functional
 exchange:    9/10 (LDA+TPSS) + 1/10 HF
 correlation: LDA (PW) + TPSS
 A Hybrid-DFT calculation using the RI-J approximation will be carried out.
 Allocatable memory for RI due to $ricore (MB):                 10000


              +--------------------------------------------------+
              | Atomic coordinate, charge and isotop information |
              +--------------------------------------------------+

                    atomic coordinates            atom    charge  isotop
         -1.00536182    0.18314856   -3.12491556    y     39.000     0
         -2.04810934   -1.05716800    0.61881710    h      1.000     0
         -3.30171041    3.30291407   -6.24203217    c      6.000     0
         -5.21163845    2.53376280   -4.50031838    c      6.000     0
         -4.59105447    3.59303964   -2.11439882    c      6.000     0
         -2.31687575    4.98795648   -2.34492222    c      6.000     0
         -1.48541149    4.82344381   -4.92037724    c      6.000     0
         -0.75604475   -4.79768293   -3.95083470    c      6.000     0
          1.75307539   -3.88365330   -4.26113555    c      6.000     0
          1.79877254   -2.28074479   -6.43661921    c      6.000     0
         -0.69693273   -2.22353377   -7.46236248    c      6.000     0
         -2.30183213   -3.77167103   -5.91919006    c      6.000     0
          1.07669775   -0.15389098    3.09330716    y     39.000     0
          2.11858946    1.09702187   -0.64802959    h      1.000     0
          3.18628985   -3.35473615    6.29631349    c      6.000     0
          5.16108859   -2.59136359    4.63209231    c      6.000     0
          4.65566869   -3.64400848    2.19829687    c      6.000     0
          2.35144372   -4.96433094    2.33382891    c      6.000     0
          1.43648768   -4.77830064    4.91478948    c      6.000     0
          0.84192852    4.81201873    3.91030827    c      6.000     0
         -1.70348194    3.90932610    4.17909405    c      6.000     0
         -1.79702677    2.32039282    6.33187313    c      6.000     0
          0.68815043    2.24595849    7.42900783    c      6.000     0
          2.31956112    3.81392031    5.89629311    c      6.000     0
         -1.40233344   -6.05955716   -2.44757367    h      1.000     0
          3.36985910   -4.33528330   -3.06601371    h      1.000     0
          3.46216223   -1.33445129   -7.21617692    h      1.000     0
         -1.27552350   -1.20343495   -9.16212956    h      1.000     0
          5.81367400   -3.41410803    0.50954268    h      1.000     0
          6.81264460   -1.46455316    5.14757159    h      1.000     0
         -3.48987586    1.37089543    7.09084608    h      1.000     0
          1.53464833    6.06838303    2.45680272    h      1.000     0
         -3.28784552    4.36791715    2.99208821    h      1.000     0
          1.23347754    1.22491224    9.14053441    h      1.000     0
         -6.86647584    1.37366454   -4.92795452    h      1.000     0
         -1.37230058    6.02142223   -0.83178868    h      1.000     0
         -3.26520037    2.84937598   -8.25492846    h      1.000     0
         -5.68604077    3.34628274   -0.37488365    h      1.000     0
          1.37145960   -6.03800269    0.71087470    h      1.000     0
          3.05812226   -2.92693311    8.31268340    h      1.000     0
         -0.35602646   -5.73388105    5.70085890    h      1.000     0
          4.30596759    4.15103526    6.23079780    h      1.000     0
          0.16239277    5.72478161   -5.72013217    h      1.000     0
         -4.29505936   -4.11028452   -6.19990487    h      1.000     0
 
       center of nuclear mass  :    0.01500505    0.00715935   -0.00706849
       center of nuclear charge:    0.01301388    0.00625148   -0.00614812

              +--------------------------------------------------+
              |               basis set information              |
              +--------------------------------------------------+

              we will work with the 1s 3p 5d 7f 9g ... basis set
              ...i.e. with spherical basis functions...

   type   atoms  prim   cont   basis
   ---------------------------------------------------------------------------
    y        2     57     31   def2-SVP   [5s3p2d1f|7s6p5d1f]
    h       22      7      5   def2-SVP   [2s1p|4s1p]
    c       20     24     14   def2-SVP   [3s2p1d|7s4p1d]
   ---------------------------------------------------------------------------
   total:   44    748    452
   ---------------------------------------------------------------------------

   total number of primitive shells          :   36
   total number of contracted shells         :  208
   total number of cartesian basis functions :  482
   total number of SCF-basis functions       :  452


 integral neglect threshold       :  0.69E-11
 integral storage threshold THIZE :  0.10E-04
 integral storage threshold THIME :         5

 number of unique ecp types :                     1
 RI-J AUXILIARY BASIS SET information:

              we will work with the 1s 3p 5d 7f 9g ... basis set
              ...i.e. with spherical basis functions...

   type   atoms  prim   cont   basis
   ---------------------------------------------------------------------------
    y        2     99     89   def2-SVP   [8s5p5d2f3g|11s5p5d3f3g]
    h       22     16     11   def2-SVP   [3s1p1d|5s2p1d]
    c       20     70     49   def2-SVP   [6s4p3d1f1g|12s5p4d2f1g]
   ---------------------------------------------------------------------------
   total:   44   1950   1400
   ---------------------------------------------------------------------------

   total number of primitive shells          :   59
   total number of contracted shells         :  456
   total number of cartesian basis functions : 1720
   total number of SCF-basis functions       : 1400


 symmetry group of the molecule :   c1 

 the group has the following generators :
   c1(z)

    1 symmetry operations found

 there are 1 real representations :   a   

 maximum number of shells which are related by symmetry :  1

 ==============================================================================
                      COSMO switched on
 ==============================================================================
 COSMO stati: segments per atom: H   32 other atoms   92
 COSMO statistics: nps   1431 npspher:    558
 COSMO surface:
   number of segments: 1431
   area (bohr**2):     1184.485034
   volume (bohr**3):   2915.762112
 COSMO: check number of disjunct cavities:

       ... OK contiguous cavity found

    mo occupation :
   irrep   mo's   occupied
    a      452       82
 
 number of basis functions   :                    452
 number of occupied orbitals :                     82
 
  
           ------------------
           density functional
           ------------------
 TPSS global hybrid functional
 exchange:    9/10 (LDA+TPSS) + 1/10 HF
 correlation: LDA (PW) + TPSS

 iterations will be done with small grid
  
 spherical integration : Lebedev's spherical grid
 spherical gridsize    :                     5
    i.e. gridpoints    :                   590
 value for diffuse not defined
 radial integration    : Chebyshev 2nd kind (scaling 3)
 radial gridsize       :                     8
 integration cells     :                    44
 partition function    : becke
 partition sharpness   :                     3
  

 biggest AO integral is expected to be     3.528781981
  
           ------------------------
               RI-J - INFORMATION
           ------------------------
 Memory core needed for (P|Q) and Cholesky      8 MByte on GA
 Memory core minimum needed except           1 MByte 
  
 ****************************************
 Memory allocated for RI-J 1 MByte
 plus additional 8 MByte (pqmatrix)  (GA)
 ****************************************
                                            
allocating par_xzuhag(  187.10 MB)

          ------------------------
          nuclear repulsion energy  :   1825.62395767    
          ------------------------

  _________________________________
 |                                 |
 |         DFTD3 V3.1 Rev 0        |
 | S.Grimme, University Bonn       |
 |            June  2014           |
 |   see standalone version        |
 |       dftd3 -h for options      |
 |_________________________________|
 
 Please cite DFT-D3 work done with this code as:
 S. Grimme, J. Antony, S. Ehrlich and H. Krieg,
 J. Chem. Phys, 132 (2010), 154104.
 If used with BJ-damping cite also
 S. Grimme, S. Ehrlich and L. Goerigk,
 J. Comput. Chem. 32 (2011), 1456-1465
 For DFT-D2 the reference is
 S. Grimme, J. Comput. Chem., 27 (2006), 1787-1799
 
C6 coefficients used:
                     2  C6 for element                      1
Z=  1 CN= 0.912     C6(AA)=    3.03
Z=  1 CN= 0.000     C6(AA)=    7.59
                     5  C6 for element                      6
Z=  6 CN= 0.000     C6(AA)=   49.11
Z=  6 CN= 0.987     C6(AA)=   43.25
Z=  6 CN= 1.998     C6(AA)=   29.36
Z=  6 CN= 2.999     C6(AA)=   25.78
Z=  6 CN= 3.984     C6(AA)=   18.21
                     3  C6 for element                     39
Z= 39 CN= 0.000     C6(AA)= 2365.89
Z= 39 CN= 1.915     C6(AA)= 1132.30
Z= 39 CN= 2.890     C6(AA)=  451.08

#           XYZ [au]              R0(AA) [Ang.]  CN          C6(AA)     C8(AA)   C10(AA) [au]
  1  -1.00536   0.18315  -3.12492   y   2.110 11.345       451.1     86005.2  20087594.1
  2  -2.04811  -1.05717   0.61882   h   1.091  1.685         3.0        36.6       541.9
  3  -3.30171   3.30291  -6.24203   c   1.455  4.100        18.3       528.1     18711.6
  4  -5.21164   2.53376  -4.50032   c   1.455  4.065        18.3       528.6     18729.5
  5  -4.59105   3.59304  -2.11440   c   1.455  4.069        18.3       528.6     18726.9
  6  -2.31688   4.98796  -2.34492   c   1.455  4.068        18.3       528.6     18727.5
  7  -1.48541   4.82344  -4.92038   c   1.455  4.071        18.3       528.6     18726.1
  8  -0.75604  -4.79768  -3.95083   c   1.455  4.060        18.3       528.7     18732.3
  9   1.75308  -3.88365  -4.26114   c   1.455  4.061        18.3       528.7     18731.7
 10   1.79877  -2.28074  -6.43662   c   1.455  4.073        18.3       528.5     18725.1
 11  -0.69693  -2.22353  -7.46236   c   1.455  4.094        18.3       528.2     18714.3
 12  -2.30183  -3.77167  -5.91919   c   1.455  4.060        18.3       528.7     18732.6
 13   1.07670  -0.15389   3.09331   y   2.110 11.343       451.1     86005.2  20087594.1
 14   2.11859   1.09702  -0.64803   h   1.091  1.683         3.0        36.6       541.9
 15   3.18629  -3.35474   6.29631   c   1.455  4.083        18.3       528.4     18719.7
 16   5.16109  -2.59136   4.63209   c   1.455  4.097        18.3       528.2     18712.9
 17   4.65567  -3.64401   2.19830   c   1.455  4.047        18.3       529.0     18740.6
 18   2.35144  -4.96433   2.33383   c   1.455  4.065        18.3       528.7     18729.6
 19   1.43649  -4.77830   4.91479   c   1.455  4.081        18.3       528.4     18720.8
 20   0.84193   4.81202   3.91031   c   1.455  4.069        18.3       528.6     18727.4
 21  -1.70348   3.90933   4.17909   c   1.455  4.065        18.3       528.6     18729.5
 22  -1.79703   2.32039   6.33187   c   1.455  4.071        18.3       528.5     18725.9
 23   0.68815   2.24596   7.42901   c   1.455  4.091        18.3       528.3     18716.0
 24   2.31956   3.81392   5.89629   c   1.455  4.059        18.3       528.7     18732.7
 25  -1.40233  -6.05956  -2.44757   h   1.091  1.010         3.1        37.3       552.4
 26   3.36986  -4.33528  -3.06601   h   1.091  1.012         3.1        37.3       552.3
 27   3.46216  -1.33445  -7.21618   h   1.091  1.010         3.1        37.3       552.4
 28  -1.27552  -1.20343  -9.16213   h   1.091  1.011         3.1        37.3       552.3
 29   5.81367  -3.41411   0.50954   h   1.091  1.010         3.1        37.3       552.4
 30   6.81264  -1.46455   5.14757   h   1.091  1.011         3.1        37.3       552.4
 31  -3.48988   1.37090   7.09085   h   1.091  1.008         3.1        37.3       552.6
 32   1.53465   6.06838   2.45680   h   1.091  1.012         3.1        37.3       552.3
 33  -3.28785   4.36792   2.99209   h   1.091  1.014         3.1        37.3       552.1
 34   1.23348   1.22491   9.14053   h   1.091  1.011         3.1        37.3       552.4
 35  -6.86648   1.37366  -4.92795   h   1.091  1.010         3.1        37.3       552.4
 36  -1.37230   6.02142  -0.83179   h   1.091  1.012         3.1        37.3       552.3
 37  -3.26520   2.84938  -8.25493   h   1.091  1.011         3.1        37.3       552.3
 38  -5.68604   3.34628  -0.37488   h   1.091  1.010         3.1        37.3       552.4
 39   1.37146  -6.03800   0.71087   h   1.091  0.995         3.1        37.4       553.7
 40   3.05812  -2.92693   8.31268   h   1.091  1.011         3.1        37.3       552.3
 41  -0.35603  -5.73388   5.70086   h   1.091  0.993         3.1        37.4       553.8
 42   4.30597   4.15104   6.23080   h   1.091  1.012         3.1        37.3       552.3
 43   0.16239   5.72478  -5.72013   h   1.091  1.012         3.1        37.3       552.3
 44  -4.29506  -4.11028  -6.19990   h   1.091  1.012         3.1        37.3       552.3

molecular C6(AA) [au] =     27206.05

           DFT-D V3
 DF tpssh                                             
 parameters
 s6       :    1.0000
 s8       :    1.2190
 rs6      :    1.2230
 rs18     :    1.0000
 alpha6   :   14.0000
 alpha8   :   16.0000
 k1-k3    :   16.0000    1.3333   -4.0000
 
 Edisp /kcal,au:   -27.6652 -0.04408731

 E6    /kcal :    -8.5713
 E8    /kcal :   -19.0939
 % E8        : 69.02
 nuclear repulsion energy                  =    1825.623957675
 empirical dispersive energy correction    =      -0.044087310
 nuclear repulsion + dispersion correction =    1825.579870365


         -----------------
         -S,T+V- integrals
         -----------------

 1e-integrals will be neglected if expon. factor < 0.693353E-12


          ----------------
          -ecp-  integrals
          ----------------
 
   Difference densities algorithm switched on.
   The maximal number of linear combinations of
   difference densities is                    20 .

 DIIS switched on: error vector is FDS-SDF
 Max. Iterations for DIIS is     :   4
 DIIS matrix (see manual) 
    Scaling factor of diagonals  :  1.200
    threshold for scaling factor :  0.000

 scf convergence criterion : increment of total energy < .1000000D-06
                  and increment of one-electron energy < .1000000D-03

  MOs are in ASCII format !


 automatic virtual orbital shift switched on 
      shift if e(lumo)-e(homo) <  2.0000000    


 reading orbital data $scfmo  from file mos
 orbital characterization : expanded
 stacho: isym= 1 dev_max=0.655408E-11 threshold=0.100000E-09
 mo provided and orthogonalized by Cholesky decomposition

 DSCF restart information will be dumped onto file mos


 Starting SCF iterations

          Overall gridpoints after grid construction =        213271

 ITERATION  ENERGY          1e-ENERGY        2e-ENERGY     NORM[dD(SAO)]  TOL
   1  -848.48231702052    -4759.3429968     2085.2808094    0.000D+00 0.692D-11
                            Exc = -112.109621960     Coul =  2209.13103548    
                            exK = -11.7406040996    
                              N = 164.00108114    
                          Ediel =-0.424027720494E-01
                            current damping = 0.700
 
          max. resid. norm for Fia-block=  1.995D+00 for orbital     21a         
          max. resid. fock norm         =  5.411D+00 for orbital    250a         

 ITERATION  ENERGY          1e-ENERGY        2e-ENERGY     NORM[dD(SAO)]  TOL
   2  -850.88284019795    -4786.0899763     2109.6272658    0.270D+01 0.445D-11
                            Exc = -113.733545137      Eck =  2223.36081090    
                              N = 164.00117804    
                          Ediel =-0.230346045947E-01
                            current damping = 0.650
 
          Norm of current diis error:  2.8800    
          max. resid. norm for Fia-block=  3.690D-01 for orbital     21a         
          max. resid. fock norm         =  3.716D-01 for orbital     21a         
          irrep a   : virtual orbitals shifted by    1.21102

 ITERATION  ENERGY          1e-ENERGY        2e-ENERGY     NORM[dD(SAO)]  TOL
   3  -851.36799984250    -4791.7247660     2114.7768958    0.537D+00 0.347D-11
                            Exc = -114.183635165      Eck =  2228.96053095    
                              N = 164.00120761    
                          Ediel =-0.187392846605E-01
                            current damping = 0.550
 
          Norm of current diis error:  1.7812    
          max. resid. norm for Fia-block=  2.020D-01 for orbital     21a         
          max. resid. fock norm         =  2.028D-01 for orbital     21a         
          irrep a   : virtual orbitals shifted by    1.60733

 ITERATION  ENERGY          1e-ENERGY        2e-ENERGY     NORM[dD(SAO)]  TOL
   4  -851.57284243558    -4794.9858490     2117.8331362    0.125D+00 0.288D-11
                            Exc = -114.435221989      Eck =  2232.26835822    
                              N = 164.00123846    
                          Ediel =-0.169629471951E-01
                            current damping = 0.450
 
          Norm of current diis error:  1.1524    
          max. resid. norm for Fia-block=  1.170D-01 for orbital     21a         
          max. resid. fock norm         =  1.172D-01 for orbital     21a         
          irrep a   : virtual orbitals shifted by    1.74939

 ITERATION  ENERGY          1e-ENERGY        2e-ENERGY     NORM[dD(SAO)]  TOL
   5  -851.66753229587    -4797.0819088     2119.8345061    0.298D-01 0.246D-11
                            Exc = -114.585720630      Eck =  2234.42022678    
                              N = 164.00126716    
                          Ediel =-0.160893832306E-01
                            current damping = 0.350
 
          Norm of current diis error: 0.76828    
          max. resid. norm for Fia-block=  6.713D-02 for orbital     21a         
          max. resid. fock norm         =  6.717D-02 for orbital     21a         
          irrep a   : virtual orbitals shifted by    1.79913
          mo-orthogonalization: Cholesky decomposition

 ITERATION  ENERGY          1e-ENERGY        2e-ENERGY     NORM[dD(SAO)]  TOL
   6  -851.71400505337    -4798.5301173     2121.2362419    0.817D-02 0.214D-11
                            Exc = -114.680935808      Eck =  2235.91717773    
                              N = 164.00129276    
                          Ediel =-0.156538349080E-01
                            current damping = 0.250
 
          Norm of current diis error: 0.52463    
          max. resid. norm for Fia-block=  3.754D-02 for orbital     22a         
          max. resid. fock norm         =  3.755D-02 for orbital     22a         
          irrep a   : virtual orbitals shifted by    1.81986

 ITERATION  ENERGY          1e-ENERGY        2e-ENERGY     NORM[dD(SAO)]  TOL
   7  -851.73783846812    -4799.5159997     2122.1982909    0.404D-02 0.187D-11
                            Exc = -114.740901922      Eck =  2236.93919282    
                              N = 164.00131564    
                          Ediel =-0.154571085419E-01
                            current damping = 0.150
 
          Norm of current diis error: 0.36765    
          max. resid. norm for Fia-block=  2.025D-02 for orbital     22a         
          max. resid. fock norm         =  2.202D-02 for orbital     89a         
          irrep a   : virtual orbitals shifted by    1.83288

 ITERATION  ENERGY          1e-ENERGY        2e-ENERGY     NORM[dD(SAO)]  TOL
   8  -851.75061407830    -4800.2072721     2122.8767877    0.302D-02 0.166D-11
                            Exc = -114.779463826      Eck =  2237.65625148    
                              N = 164.00133664    
                          Ediel =-0.154231535477E-01
                            current damping = 0.050
 
          Norm of current diis error: 0.26421    
          max. resid. norm for Fia-block=  1.546D-02 for orbital     79a         
          max. resid. fock norm         =  1.552D-02 for orbital     86a         
          irrep a   : virtual orbitals shifted by    1.84541

 ITERATION  ENERGY          1e-ENERGY        2e-ENERGY     NORM[dD(SAO)]  TOL
   9  -851.75777931886    -4800.6991655     2123.3615158    0.171D-02 0.150D-11
                            Exc = -114.804397651      Eck =  2238.16591343    
                              N = 164.00135581    
                          Ediel =-0.154678030970E-01
                            current damping = 0.050
 
          Norm of current diis error: 0.19482    
          max. resid. norm for Fia-block=  1.298D-02 for orbital     79a         
          max. resid. fock norm         =  1.299D-02 for orbital     79a         
          irrep a   : virtual orbitals shifted by    1.84399

 ITERATION  ENERGY          1e-ENERGY        2e-ENERGY     NORM[dD(SAO)]  TOL
  10  -851.76192534186    -4801.0490552     2123.7072595    0.685D-03 0.138D-11
                            Exc = -114.820190675      Eck =  2238.52745019    
                              N = 164.00137290    
                          Ediel =-0.155392773948E-01
                            current damping = 0.050
 
          Norm of current diis error: 0.14827    
          max. resid. norm for Fia-block=  1.108D-02 for orbital     73a         
          max. resid. fock norm         =  1.115D-02 for orbital     83a         
          irrep a   : virtual orbitals shifted by    1.84286
          mo-orthogonalization: Cholesky decomposition

 ITERATION  ENERGY          1e-ENERGY        2e-ENERGY     NORM[dD(SAO)]  TOL
  11  -851.76445062425    -4801.2995852     2123.9552642    0.719D-03 0.129D-11
                            Exc = -114.830354361      Eck =  2238.78561861    
                              N = 164.00138826    
                          Ediel =-0.156186358560E-01
                            current damping = 0.050
 
          Norm of current diis error: 0.11600    
          max. resid. norm for Fia-block=  9.639D-03 for orbital     73a         
          max. resid. fock norm         =  9.686D-03 for orbital     83a         
          irrep a   : virtual orbitals shifted by    1.84198

 ITERATION  ENERGY          1e-ENERGY        2e-ENERGY     NORM[dD(SAO)]  TOL
  12  -851.76605621507    -4801.4832267     2124.1373001    0.200D-03 0.122D-11
                            Exc = -114.837055516      Eck =  2238.97435565    
                              N = 164.00140204    
                          Ediel =-0.156945263083E-01
                            current damping = 0.050
 
          Norm of current diis error: 0.92879E-01
          max. resid. norm for Fia-block=  8.435D-03 for orbital     73a         
          max. resid. fock norm         =  8.462D-03 for orbital     83a         
          irrep a   : virtual orbitals shifted by    1.84133

 ITERATION  ENERGY          1e-ENERGY        2e-ENERGY     NORM[dD(SAO)]  TOL
  13  -851.76711420840    -4801.6202266     2124.2732420    0.617D-04 0.116D-11
                            Exc = -114.841518910      Eck =  2239.11476090    
                              N = 164.00141433    
                          Ediel =-0.157599645056E-01
                            current damping = 0.050
 
          Norm of current diis error: 0.75790E-01
          max. resid. norm for Fia-block=  7.413D-03 for orbital     73a         
          max. resid. fock norm         =  7.424D-03 for orbital     83a         
          irrep a   : virtual orbitals shifted by    1.84083

 ITERATION  ENERGY          1e-ENERGY        2e-ENERGY     NORM[dD(SAO)]  TOL
  14  -851.76783214216    -4801.7240098     2124.3763073    0.330D-04 0.111D-11
                            Exc = -114.844508188      Eck =  2239.22081545    
                              N = 164.00142520    
                          Ediel =-0.158128163629E-01
                            current damping = 0.050
 
          Norm of current diis error: 0.62794E-01
          max. resid. norm for Fia-block=  6.534D-03 for orbital     73a         
          max. resid. fock norm         =  6.535D-03 for orbital     73a         
          irrep a   : virtual orbitals shifted by    1.84044

 ITERATION  ENERGY          1e-ENERGY        2e-ENERGY     NORM[dD(SAO)]  TOL
  15  -851.76833077658    -4801.8033928     2124.4551917    0.280D-04 0.107D-11
                            Exc = -114.846515811      Eck =  2239.30170748    
                              N = 164.00143477    
                          Ediel =-0.158542434721E-01
                            current damping = 0.050
 
          Norm of current diis error: 0.52671E-01
          max. resid. norm for Fia-block=  5.772D-03 for orbital     73a         
          max. resid. fock norm         =  5.773D-03 for orbital     73a         
          irrep a   : virtual orbitals shifted by    1.84013
          mo-orthogonalization: Cholesky decomposition

 ITERATION  ENERGY          1e-ENERGY        2e-ENERGY     NORM[dD(SAO)]  TOL
  16  -851.76868387371    -4801.8649304     2124.5163762    0.129D-04 0.103D-11
                            Exc = -114.847869729      Eck =  2239.36424588    
                              N = 164.00144317    
                          Ediel =-0.158856884377E-01
                            current damping = 0.050
 
          Norm of current diis error: 0.44615E-01
          max. resid. norm for Fia-block=  5.108D-03 for orbital     73a         
          max. resid. fock norm         =  5.109D-03 for orbital     73a         
          irrep a   : virtual orbitals shifted by    1.83988

 ITERATION  ENERGY          1e-ENERGY        2e-ENERGY     NORM[dD(SAO)]  TOL
  17  -851.76893798603    -4801.9131116     2124.5643032    0.472D-05 0.996D-12
                            Exc = -114.848774172      Eck =  2239.41307738    
                              N = 164.00145051    
                          Ediel =-0.159085491389E-01
                            current damping = 0.050
 
          Norm of current diis error: 0.38086E-01
          max. resid. norm for Fia-block=  4.527D-03 for orbital     73a         
          max. resid. fock norm         =  4.527D-03 for orbital     73a         
          irrep a   : virtual orbitals shifted by    1.83968

 ITERATION  ENERGY          1e-ENERGY        2e-ENERGY     NORM[dD(SAO)]  TOL
  18  -851.76912330363    -4801.9511469     2124.6021532    0.236D-05 0.963D-12
                            Exc = -114.849368230      Eck =  2239.45152145    
                              N = 164.00145689    
                          Ediel =-0.159244406999E-01
                            current damping = 0.050
 
          Norm of current diis error: 0.32714E-01
          max. resid. norm for Fia-block=  4.016D-03 for orbital     73a         
          max. resid. fock norm         =  4.017D-03 for orbital     73a         
          irrep a   : virtual orbitals shifted by    1.83952

 ITERATION  ENERGY          1e-ENERGY        2e-ENERGY     NORM[dD(SAO)]  TOL
  19  -851.76925993005    -4801.9813635     2124.6322332    0.165D-05 0.931D-12
                            Exc = -114.849747588      Eck =  2239.48198077    
                              N = 164.00146245    
                          Ediel =-0.159349532365E-01
                            current damping = 0.050
 
          Norm of current diis error: 0.28242E-01
          max. resid. norm for Fia-block=  3.567D-03 for orbital     73a         
          max. resid. fock norm         =  3.567D-03 for orbital     73a         
          irrep a   : virtual orbitals shifted by    1.83938

 ITERATION  ENERGY          1e-ENERGY        2e-ENERGY     NORM[dD(SAO)]  TOL
  20  -851.76936159475    -4802.0055238     2124.6562918    0.143D-05 0.901D-12
                            Exc = -114.849978110      Eck =  2239.50626995    
                              N = 164.00146726    
                          Ediel =-0.159413660645E-01
                            current damping = 0.050
 
          Norm of current diis error: 0.24482E-01
          max. resid. norm for Fia-block=  3.170D-03 for orbital     73a         
          max. resid. fock norm         =  3.170D-03 for orbital     73a         
          irrep a   : virtual orbitals shifted by    1.83927
          mo-orthogonalization: Cholesky decomposition

 ITERATION  ENERGY          1e-ENERGY        2e-ENERGY     NORM[dD(SAO)]  TOL
  21  -851.76943783548    -4802.0249276     2124.6756194    0.263D-04 0.873D-12
                            Exc = -114.850104070      Eck =  2239.52572350    
                              N = 164.00147144    
                          Ediel =-0.159447033511E-01
                            current damping = 0.050
 
          Norm of current diis error: 0.21295E-01
          max. resid. norm for Fia-block=  2.820D-03 for orbital     73a         
          max. resid. fock norm         =  2.820D-03 for orbital     73a         
          irrep a   : virtual orbitals shifted by    1.83918

 ITERATION  ENERGY          1e-ENERGY        2e-ENERGY     NORM[dD(SAO)]  TOL
  22  -851.76949517787    -4802.0405745     2124.6912090    0.263D-04 0.692D-11
                            Exc = -114.850157765     Coul =  2251.60284087    
                            exK = -12.0614741107    
                              N = 164.00147507    
                          Ediel =-0.159458217578E-01
                            current damping = 0.050
 
          Norm of current diis error: 0.18577E-01
          max. resid. norm for Fia-block=  2.510D-03 for orbital     73a         
          max. resid. fock norm         =  2.510D-03 for orbital     73a         
          irrep a   : virtual orbitals shifted by    1.83910

 ITERATION  ENERGY          1e-ENERGY        2e-ENERGY     NORM[dD(SAO)]  TOL
  23  -851.76953882838    -4802.0532357     2124.7038265    0.749D-02 0.439D-11
                            Exc = -114.850162117      Eck =  2239.55398864    
                              N = 164.00147821    
                          Ediel =-0.159453957583E-01
                            current damping = 0.050
 
          Norm of current diis error: 0.16246E-01
          max. resid. norm for Fia-block=  2.235D-03 for orbital     73a         
          max. resid. fock norm         =  2.235D-03 for orbital     73a         
          irrep a   : virtual orbitals shifted by    1.83904

 ITERATION  ENERGY          1e-ENERGY        2e-ENERGY     NORM[dD(SAO)]  TOL
  24  -851.76957213220    -4802.0635150     2124.7140725    0.281D-03 0.302D-11
                            Exc = -114.850133416      Eck =  2239.56420594    
                              N = 164.00148094    
                          Ediel =-0.159439204963E-01
                            current damping = 0.050
 
          Norm of current diis error: 0.14237E-01
          max. resid. norm for Fia-block=  1.991D-03 for orbital     73a         
          max. resid. fock norm         =  1.992D-03 for orbital     73a         
          irrep a   : virtual orbitals shifted by    1.83899

 ITERATION  ENERGY          1e-ENERGY        2e-ENERGY     NORM[dD(SAO)]  TOL
  25  -851.76959765119    -4802.0718819     2124.7224139    0.196D-04 0.233D-11
                            Exc = -114.850083153      Eck =  2239.57249708    
                              N = 164.00148331    
                          Ediel =-0.159417697103E-01
                            current damping = 0.050
 
          Norm of current diis error: 0.12500E-01
          max. resid. norm for Fia-block=  1.775D-03 for orbital     73a         
          max. resid. fock norm         =  1.775D-03 for orbital     73a         
          irrep a   : virtual orbitals shifted by    1.83894
          mo-orthogonalization: Cholesky decomposition

 ITERATION  ENERGY          1e-ENERGY        2e-ENERGY     NORM[dD(SAO)]  TOL
  26  -851.76961727815    -4802.0787106     2124.7292229    0.504D-05 0.190D-11
                            Exc = -114.850019775      Eck =  2239.57924272    
                              N = 164.00148537    
                          Ediel =-0.159392237723E-01
                            current damping = 0.050
 
          Norm of current diis error: 0.10992E-01
          max. resid. norm for Fia-block=  1.583D-03 for orbital     73a         
          max. resid. fock norm         =  1.583D-03 for orbital     73a         
          irrep a   : virtual orbitals shifted by    1.83890

 ITERATION  ENERGY          1e-ENERGY        2e-ENERGY     NORM[dD(SAO)]  TOL
  27  -851.76963242534    -4802.0842974     2124.7347946    0.302D-04 0.161D-11
                            Exc = -114.849949207      Eck =  2239.58474384    
                              N = 164.00148717    
                          Ediel =-0.159364837359E-01
                            current damping = 0.050
 
          Norm of current diis error: 0.96796E-02
          max. resid. norm for Fia-block=  1.412D-03 for orbital     73a         
          max. resid. fock norm         =  1.412D-03 for orbital     73a         
          irrep a   : virtual orbitals shifted by    1.83887

 ITERATION  ENERGY          1e-ENERGY        2e-ENERGY     NORM[dD(SAO)]  TOL
  28  -851.76964414403    -4802.0888794     2124.7393649    0.543D-05 0.141D-11
                            Exc = -114.849875622      Eck =  2239.58924056    
                              N = 164.00148873    
                          Ediel =-0.159336885534E-01
                            current damping = 0.050
 
          Norm of current diis error: 0.85347E-02
          max. resid. norm for Fia-block=  1.260D-03 for orbital     73a         
          max. resid. fock norm         =  1.260D-03 for orbital     73a         
          irrep a   : virtual orbitals shifted by    1.83884

 ITERATION  ENERGY          1e-ENERGY        2e-ENERGY     NORM[dD(SAO)]  TOL
  29  -851.76965323492    -4802.0926456     2124.7431220    0.184D-05 0.126D-11
                            Exc = -114.849801922      Eck =  2239.59292395    
                              N = 164.00149009    
                          Ediel =-0.159309344755E-01
                            current damping = 0.050
 
          Norm of current diis error: 0.75337E-02
          max. resid. norm for Fia-block=  1.125D-03 for orbital     73a         
          max. resid. fock norm         =  1.125D-03 for orbital     73a         
          irrep a   : virtual orbitals shifted by    1.83882

 ITERATION  ENERGY          1e-ENERGY        2e-ENERGY     NORM[dD(SAO)]  TOL
  30  -851.76966030204    -4802.0957483     2124.7462176    0.918D-06 0.116D-11
                            Exc = -114.849730112      Eck =  2239.59594775    
                              N = 164.00149128    
                          Ediel =-0.159282856456E-01
                            current damping = 0.050
 
          Norm of current diis error: 0.66568E-02
          max. resid. norm for Fia-block=  1.005D-03 for orbital     73a         
          max. resid. fock norm         =  1.005D-03 for orbital     73a         
          irrep a   : virtual orbitals shifted by    1.83879
          mo-orthogonalization: Cholesky decomposition

 ITERATION  ENERGY          1e-ENERGY        2e-ENERGY     NORM[dD(SAO)]  TOL
  31  -851.76966580594    -4802.0983099     2124.7487737    0.740D-06 0.108D-11
                            Exc = -114.849661479      Eck =  2239.59843519    
                              N = 164.00149232    
                          Ediel =-0.159257815983E-01
                            current damping = 0.050
 
          Norm of current diis error: 0.58874E-02
          max. resid. norm for Fia-block=  8.974D-04 for orbital     73a         
          max. resid. fock norm         =  8.974D-04 for orbital     73a         
          irrep a   : virtual orbitals shifted by    1.83878

 ITERATION  ENERGY          1e-ENERGY        2e-ENERGY     NORM[dD(SAO)]  TOL
  32  -851.76967011011    -4802.1004294     2124.7508889    0.997D-04 0.106D-11
                            Exc = -114.849596819      Eck =  2239.60048572    
                              N = 164.00149322    
                          Ediel =-0.159234444989E-01
                            current damping = 0.050
 
          Norm of current diis error: 0.52112E-02
          max. resid. norm for Fia-block=  8.017D-04 for orbital     73a         
          max. resid. fock norm         =  8.017D-04 for orbital     73a         
          irrep a   : virtual orbitals shifted by    1.83876

 ITERATION  ENERGY          1e-ENERGY        2e-ENERGY     NORM[dD(SAO)]  TOL
  33  -851.76967356351    -4802.1021868     2124.7526429    0.127D-03 0.111D-11
                            Exc = -114.849536598      Eck =  2239.60217949    
                              N = 164.00149401    
                          Ediel =-0.159212837561E-01
                            current damping = 0.050
 
          Norm of current diis error: 0.46161E-02
          max. resid. norm for Fia-block=  7.164D-04 for orbital     73a         
          max. resid. fock norm         =  7.164D-04 for orbital     73a         
          irrep a   : virtual orbitals shifted by    1.83875

 ITERATION  ENERGY          1e-ENERGY        2e-ENERGY     NORM[dD(SAO)]  TOL
  34  -851.76967634460    -4802.1036479     2124.7541012    0.635D-04 0.116D-11
                            Exc = -114.849481033      Eck =  2239.60358222    
                              N = 164.00149471    
                          Ediel =-0.159192995106E-01
                            current damping = 0.050
 
          Norm of current diis error: 0.40918E-02
          max. resid. norm for Fia-block=  6.402D-04 for orbital     73a         
          max. resid. fock norm         =  6.402D-04 for orbital     73a         
          irrep a   : virtual orbitals shifted by    1.83874

 ITERATION  ENERGY          1e-ENERGY        2e-ENERGY     NORM[dD(SAO)]  TOL
  35  -851.76967829291    -4802.1048652     2124.7553166    0.123D-01 0.197D-11
                            Exc = -114.849430068      Eck =  2239.60474665    
                              N = 164.00149531    
                          Ediel =-0.159174896299E-01
                            current damping = 0.050
 
          Norm of current diis error: 0.36293E-02
          max. resid. norm for Fia-block=  5.723D-04 for orbital     73a         
          max. resid. fock norm         =  5.723D-04 for orbital     73a         
          irrep a   : virtual orbitals shifted by    1.83873
          mo-orthogonalization: Cholesky decomposition

 ITERATION  ENERGY          1e-ENERGY        2e-ENERGY     NORM[dD(SAO)]  TOL
  36  -851.76967992455    -4802.1058792     2124.7563289    0.100D-03 0.197D-11
                            Exc = -114.849383519      Eck =  2239.60571245    
                              N = 164.00149584    
                          Ediel =-0.159158464506E-01
                            current damping = 0.050
 
          Norm of current diis error: 0.32211E-02
          max. resid. norm for Fia-block=  5.116D-04 for orbital     73a         
          max. resid. fock norm         =  5.116D-04 for orbital     73a         
          irrep a   : virtual orbitals shifted by    1.83872

 ITERATION  ENERGY          1e-ENERGY        2e-ENERGY     NORM[dD(SAO)]  TOL
  37  -851.76968121514    -4802.1067279     2124.7571763    0.233D-03 0.197D-11
                            Exc = -114.849341309      Eck =  2239.60651763    
                              N = 164.00149631    
                          Ediel =-0.159143636567E-01
                            current damping = 0.050
 
          Norm of current diis error: 0.28602E-02
          max. resid. norm for Fia-block=  4.575D-04 for orbital     73a         
          max. resid. fock norm         =  4.575D-04 for orbital     73a         
          irrep a   : virtual orbitals shifted by    1.83871

 ITERATION  ENERGY          1e-ENERGY        2e-ENERGY     NORM[dD(SAO)]  TOL
  38  -851.76968223150    -4802.1074389     2124.7578863    0.223D-03 0.197D-11
                            Exc = -114.849303153      Eck =  2239.60718949    
                              N = 164.00149672    
                          Ediel =-0.159130290706E-01
                            current damping = 0.050
 
          Norm of current diis error: 0.25411E-02
          max. resid. norm for Fia-block=  4.091D-04 for orbital     73a         
          max. resid. fock norm         =  4.091D-04 for orbital     73a         
          irrep a   : virtual orbitals shifted by    1.83870

 ITERATION  ENERGY          1e-ENERGY        2e-ENERGY     NORM[dD(SAO)]  TOL
  39  -851.76968303325    -4802.1080362     2124.7584828    0.207D-03 0.197D-11
                            Exc = -114.849268782      Eck =  2239.60775156    
                              N = 164.00149707    
                          Ediel =-0.159118304551E-01
                            current damping = 0.050
 
          Norm of current diis error: 0.22586E-02
          max. resid. norm for Fia-block=  3.659D-04 for orbital     73a         
          max. resid. fock norm         =  3.659D-04 for orbital     73a         
          irrep a   : virtual orbitals shifted by    1.83870
 density matrices became linear dependent...
Subroutine ddmat can not establish optimal linear combination of delta densities !
 Next fock matrix will be calculated from scratch !

 ITERATION  ENERGY          1e-ENERGY        2e-ENERGY     NORM[dD(SAO)]  TOL
  40  -851.76968368924    -4802.1085383     2124.7589842    0.207D-03 0.692D-11
                            Exc = -114.849237883     Coul =  2251.66948851    
                            exK = -12.0612664049    
                              N = 164.00149739    
                          Ediel =-0.159107555635E-01
                            current damping = 0.050
 
          Norm of current diis error: 0.20083E-02
          max. resid. norm for Fia-block=  3.272D-04 for orbital     73a         
          max. resid. fock norm         =  3.272D-04 for orbital     73a         
          irrep a   : virtual orbitals shifted by    1.83869
          mo-orthogonalization: Cholesky decomposition

 ITERATION  ENERGY          1e-ENERGY        2e-ENERGY     NORM[dD(SAO)]  TOL
  41  -851.76968418651    -4802.1089618     2124.7594072    0.553D-03 0.439D-11
                            Exc = -114.849210224      Eck =  2239.60861747    
                              N = 164.00149766    
                          Ediel =-0.159097939552E-01
                            current damping = 0.050
 
          Norm of current diis error: 0.17865E-02
          max. resid. norm for Fia-block=  2.927D-04 for orbital     73a         
          max. resid. fock norm         =  2.927D-04 for orbital     73a         
          irrep a   : virtual orbitals shifted by    1.83869

 ITERATION  ENERGY          1e-ENERGY        2e-ENERGY     NORM[dD(SAO)]  TOL
  42  -851.76968458026    -4802.1093195     2124.7597646    0.126D-04 0.300D-11
                            Exc = -114.849185464      Eck =  2239.60895006    
                              N = 164.00149790    
                          Ediel =-0.159089342228E-01
                            current damping = 0.050
 
          Norm of current diis error: 0.15898E-02
          max. resid. norm for Fia-block=  2.619D-04 for orbital     73a         
          max. resid. fock norm         =  2.619D-04 for orbital     73a         
          irrep a   : virtual orbitals shifted by    1.83869

 ITERATION  ENERGY          1e-ENERGY        2e-ENERGY     NORM[dD(SAO)]  TOL
  43  -851.76968489379    -4802.1096223     2124.7600671    0.223D-05 0.230D-11
                            Exc = -114.849163348      Eck =  2239.60923042    
                              N = 164.00149812    
                          Ediel =-0.159081665359E-01
                            current damping = 0.050
 
          Norm of current diis error: 0.14153E-02
          max. resid. norm for Fia-block=  2.343D-04 for orbital     73a         
          max. resid. fock norm         =  2.343D-04 for orbital     73a         
          irrep a   : virtual orbitals shifted by    1.83868

 ENERGY CONVERGED !

          Overall gridpoints after grid construction =        677136

 ITERATION  ENERGY          1e-ENERGY        2e-ENERGY     NORM[dD(SAO)]  TOL
  44  -851.76915476035    -4802.1098790     2124.7608539    0.890D-05 0.197D-11
                            Exc = -114.848613244      Eck =  2239.60946713    
                              N = 164.00001004    
                          Ediel =-0.159074817060E-01
                            current damping = 0.050
 
          Norm of current diis error: 0.12603E-02
          max. resid. norm for Fia-block=  2.075D-04 for orbital     73a         
          max. resid. fock norm         =  2.076D-04 for orbital     73a         

 End of SCF iterations
 COSMO: write data to file cosmo_transfer.tmp

   convergence criteria satisfied after   44 iterations


                  ------------------------------------------ 
                 |  total energy      =   -851.76915476035  |
                  ------------------------------------------ 
                 :  kinetic energy    =    789.82861878668  :
                 :  potential energy  =  -1641.59777354703  :
                 :  virial theorem    =      1.92728013731  :
                 :  wavefunction norm =      1.00000000000  :
                  .......................................... 


 <geterg> : there is no data group $energy 


 <skperg> : $end is missing 


 orbitals $scfmo  will be written to file mos

    irrep                 78a         79a         80a         81a         82a   
 eigenvalues H         -0.23193    -0.22767    -0.22499    -0.22362    -0.21258
            eV          -6.3113     -6.1954     -6.1224     -6.0850     -5.7846
 occupation              2.0000      2.0000      2.0000      2.0000      2.0000 

    irrep                 83a         84a         85a         86a         87a   
 eigenvalues H         -0.05895    -0.04167    -0.02117    -0.00900     0.00547
            eV          -1.6041     -1.1339     -0.5761     -0.2449      0.1488
 
 ==============================================================================
                                  COSMO RESULTS
 ==============================================================================
  PARAMETER:
    nppa:      1082
    nspa:        92
    nsph:        32
    nps:       1431
    npspher:    558
    disex:   10.0000    
    disex2:  4392.63    
    rsolv [A]: 1.3000
    routf:     0.8500
    phsran:    0.0    
    ampran:   0.10E-04
    cavity:  closed
    epsilon:     7.600
    refind:     1.300
    fepsi:      0.8148148
  CAVITY VOLUME/AREA [a.u.]:
    surface: V1.0, A matrix: V1.0
    area:  1184.49
    volume:  2915.76
  SCREENING CHARGE:
    cosmo      :  -0.036557
    correction :   0.035658
    total      :  -0.000898
  ENERGIES [a.u.]:
    Total energy            =    -851.7691547603541
    Total energy + OC corr. =     -851.7694735511
    Dielectric energy       =       -0.0159074817
    Diel. energy + OC corr. =       -0.0162262724
  ELEMENT RADIUS [A]: ATOM LIST
    y  2.22: 1,13
    h  1.30: 2,14,25-44
    c  2.00: 3-12,15-24
 ==============================================================================
 
 
 
 ==============================================================================
                           electrostatic moments
 ==============================================================================

 reference point for electrostatic moments:    0.00000   0.00000   0.00000

 
              nuc           elec       ->  total
 ------------------------------------------------------------------------------
                          charge      
 ------------------------------------------------------------------------------
         164.000000    -164.000000      -0.000000
 
 ------------------------------------------------------------------------------
                       dipole moment  
 ------------------------------------------------------------------------------
   x       0.865647      -0.828949       0.036698
   y       0.556114      -0.509229       0.046884
   z      -0.467551       0.468772       0.001221
 
   | dipole moment | =     0.0596 a.u. =     0.1514 debye 
 
 ------------------------------------------------------------------------------
                     quadrupole moment
 ------------------------------------------------------------------------------
  xx    1255.748212   -1375.633674    -119.885463
  yy    2035.004118   -2170.359664    -135.355547
  zz    3951.729571   -4071.736547    -120.006976
  xy    -745.450401     754.704008       9.253607
  xz    1045.480993   -1045.637901      -0.156908
  yz     157.445955    -161.642694      -4.196739
 
     1/3  trace=    -125.082662
     anisotropy=      23.393544
 
 ==============================================================================
 

    ridft profiling
  --------------------------------------------------------------------
             module   cpu total (s)       %  wall total (s)       %

               RIDFT           410.6  100.00           374.9  100.00
         Ridft_b_scf             4.9    1.19             2.3    0.61
        b_scf_prelim             0.0    0.00             0.0    0.00
        b_scf_molinp             0.0    0.00             0.0    0.00
         b_scf_init0             0.0    0.00             0.0    0.00
        b_scf_auxbas             0.0    0.00             0.0    0.00
      b_scf_symmetry             1.5    0.37             1.2    0.32
         b_scf_cosmo             1.5    0.37             1.2    0.32
        cosmo.consts             0.0    0.00             0.0    0.01
       cosmo.setamat             1.0    0.24             1.0    0.26
          cosmo.chol             0.4    0.09             0.1    0.02
        b_scf_params             0.4    0.09             0.0    0.01
          b_scf_ri-j             2.6    0.65             0.8    0.20
    b_scf_ri-j_auxpq             2.6    0.64             0.8    0.20
     ri-j_auxpq_chol             0.3    0.08             0.0    0.01
         b_scf_1elec             0.2    0.04             0.2    0.05
       b_scf_moinput             0.2    0.04             0.1    0.02
     prepare.moinput             0.0    0.01             0.0    0.01
     moinput_orthmos             0.2    0.04             0.0    0.01
    b_scf_dft-dstmax             0.0    0.00             0.0    0.00
           Ridft_scf           405.7   98.80           372.5   99.35
          Scf_b_loop             0.1    0.04             0.0    0.01
                noga             0.0    0.00             0.0    0.00
            Scf_loop           404.4   98.48           371.9   99.20
     scf_loop_mkdmat             1.2    0.29             0.3    0.08
       scf_loop_ri-j            15.3    3.72             3.8    1.02
    ri-j_near_lpdrc1             0.7    0.17             0.2    0.04
    ri-j_near_lpdrc2             0.6    0.15             0.2    0.04
       scf_loop_ex-K           169.5   41.27           160.1   42.69
         scf_loop_k1           164.7   40.11           157.2   41.92
      scf_loop_cosmo            26.7    6.50            26.7    7.13
     cosmo.calcphipa            27.1    6.60            26.6    7.10
      cosmo.coschol2             0.4    0.09             0.4    0.10
     scf_loop_symcar             0.3    0.06             0.3    0.07
      scf_loop_dfmat             0.1    0.01             0.0    0.01
        scf_loop_dft           151.3   36.86           151.2   40.32
        dft_grid_con             1.2    0.30             1.2    0.32
         dft_xc_eval           148.3   36.12           148.2   39.52
     scf_loop_energy             0.0    0.00             0.0    0.00
     scf_loop_mkfock            25.9    6.31            25.9    6.91
        cosmo_mkfock            25.9    6.31            25.9    6.91
       cosmo.dohqmat            25.9    6.31            25.9    6.91
       scf_loop_diis             2.6    0.64             0.7    0.19
       scf_loop_diag            11.0    2.68             2.7    0.73
     scf_loop_modump             0.0    0.00             0.0    0.00
      scf_loop_ortho             0.5    0.12             0.1    0.03
          Scf_a_loop             1.1    0.26             0.5    0.14
               Cosmo             0.9    0.22             0.3    0.08
           cosmo usa             0.0    0.00             0.0    0.00
         Ridft_a_scf             0.0    0.01             0.1    0.04
         a_scf_fanal             0.0    0.01             0.1    0.04
 


    ------------------------------------------------------------------------
         total  cpu-time :  6 minutes and 51 seconds
         total wall-time :  6 minutes and 15 seconds
    ------------------------------------------------------------------------

   ****  ridft : all done  ****


    2018-01-28 15:20:30.365 

 ridft ended normally
fine, there is no data group "$actual step"
next step = rdgrad

OPTIMIZATION CYCLE 1
Sun Jan 28 15:20:31 PST 2018
STARTING rdgrad ON 8 PROCESSORS!
RUNNING PROGRAM /beegfs/modfac/apps/TURBOMOLE/7.2-official/bin/em64t-unknown-linux-gnu_smp/rdgrad_mpi.
PLEASE WAIT UNTIL rdgrad HAS FINISHED.
 c-8-39.local ( 1 ) 
 c-8-39.local ( 2 ) 
 c-8-39.local ( 3 ) 
 c-8-39.local ( 4 ) 
 c-8-39.local ( 5 ) 
 c-8-39.local ( 6 ) 
 c-8-39.local ( 7 ) 
 this is node-proc. number 0 running on node c-8-39.local
 the total number of node-proc. spawned is   8
 GA version: using    8 (total) on    1 nhosts.
 operating system is UNIX !

 rdgrad (c-8-39.local) : TURBOMOLE V7.2 ( 21287 ) 3 Jul 2017 at 09:36:10
 Copyright (C) 2017 TURBOMOLE GmbH, Karlsruhe


    2018-01-28 15:20:33.219 

 ********** GlobalArray OPTION SETTINGS : **********
 *****************************************************

 gradient run will be profiled !



                                 r d g r a d

                          gradient for ridft program 

                        by K.Eichkorn, O.Treutler, H.Oehm, 
                             M.Haeser and R.Ahlrichs
                  (Chemical Physics Letters 242 (1995) 652-660)
                    parallel version: M.v.Arnim  &  R.Ahlrichs
                            quantum chemistry group
                             university  karlsruhe
                                   germany




                          References             
                                                 
          Density Functional:                              
              O. Treutler and R. Ahlrichs                      
              Efficient Molecular Numerical Integration Schemes
              J. chem. Phys. 102: 346 (1995)                   
          Parallel Version:                                
              Performance of parallel TURBOMOLE for Density    
              Functional Calculations                          
              M. v.Arnim and R. Ahlrichs                      
              J. comp. Chem. 19: 1746 (1998)                   
          RI-J Method:                                     
              Auxiliary Basis Sets to approximate Coulomb      
              Potentials                                       
              Chem. Phys. Lett. 240: 283 (1995)                
              K. Eichkorn, O. Treutler, H. Oehm, M. Haeser     
              and R. Ahlrichs                                  
              Chem. Phys. Lett. 242: 652 (1995)                
                                                           
              Auxiliary Basis Sets for Main Row Atoms and their
              Use to approximate Coulomb Potentials            
              K. Eichkorn, F. Weigend, O. Treutler and         
              R. Ahlrichs                                      
              Theo. Chem. Acc. 97: 119 (1997)                   
                                         



 integral neglect threshold       :  0.69E-11
 integral storage threshold THIZE :  0.10E-04
 integral storage threshold THIME :         5

 number of unique ecp types :                     1

          ------------------
          -ecp- potential(s)
          ------------------

 center   1  y def2-ecp  (ecp no.  1)  ncore = 28,  lmax = 3

 center  13  y def2-ecp  (ecp no.  2)  ncore = 28,  lmax = 3
  (equal to center   1 y )
 TPSS global hybrid functional
 exchange:    9/10 (LDA+TPSS) + 1/10 HF
 correlation: LDA (PW) + TPSS
 A Hybrid-DFT calculation using the RI-J approximation will be carried out.
  
  
 AUXILIARY BASIS SET information:

 symmetry group of the molecule :   c1 

 the group has the following generators :
   c1(z)

    1 symmetry operations found

 there are 1 real representations :   a   

 maximum number of shells which are related by symmetry :  1


    mo occupation :
   irrep   mo's   occupied
    a      452       82
 
 number of basis functions   :                    452
 number of occupied orbitals :                     82
 

 number of off-diagonal lagrangians expected :  0

 biggest AO integral is expected to be     3.528781981
  
           ------------------
           density functional
           ------------------
 TPSS global hybrid functional
 exchange:    9/10 (LDA+TPSS) + 1/10 HF
 correlation: LDA (PW) + TPSS

 iterations will be done with small grid
  
 spherical integration : Lebedev's spherical grid
 spherical gridsize    :                     5
    i.e. gridpoints    :                   590
 value for diffuse not defined
 radial integration    : Chebyshev 2nd kind (scaling 3)
 radial gridsize       :                     8
 integration cells     :                    44
 partition function    : becke
 partition sharpness   :                     3
  
  
           ------------------------
             RDGRAD - INFORMATION
           ------------------------
  
 Threshold for integral neglect (rithr1): 1E-10
 Threshold for integral neglect (rithr2): 1E-10
     
 ****************************************
 Local memory allocated for RDGRAD: 4 MiB
 ****************************************
                                            
 PQ decomposition by parallel Cholesky:                  1400  basis functions.

 nuclear repulsion energy  :   1825.62395767    

  MOs are in ASCII format !


 reading orbital data $scfmo  from file mos
 orbital characterization : scfconv=7

    ----------------------------------------
     S+T+V CONTRIBUTIONS TO ENERGY GRADIENT 
    ----------------------------------------
 ==============================================================================
                      COSMO switched on
 ==============================================================================

 1e-integral 1st. derivatives will be neglected if expon. factor < 0.138904E-13

COSMO: already initialized
 COSMO: using fcos:      0.8148148
  _________________________________
 |                                 |
 |         DFTD3 V3.1 Rev 0        |
 | S.Grimme, University Bonn       |
 |            June  2014           |
 |   see standalone version        |
 |       dftd3 -h for options      |
 |_________________________________|
 
 Please cite DFT-D3 work done with this code as:
 S. Grimme, J. Antony, S. Ehrlich and H. Krieg,
 J. Chem. Phys, 132 (2010), 154104.
 If used with BJ-damping cite also
 S. Grimme, S. Ehrlich and L. Goerigk,
 J. Comput. Chem. 32 (2011), 1456-1465
 For DFT-D2 the reference is
 S. Grimme, J. Comput. Chem., 27 (2006), 1787-1799
 
C6 coefficients used:
                     2  C6 for element                      1
Z=  1 CN= 0.912     C6(AA)=    3.03
Z=  1 CN= 0.000     C6(AA)=    7.59
                     5  C6 for element                      6
Z=  6 CN= 0.000     C6(AA)=   49.11
Z=  6 CN= 0.987     C6(AA)=   43.25
Z=  6 CN= 1.998     C6(AA)=   29.36
Z=  6 CN= 2.999     C6(AA)=   25.78
Z=  6 CN= 3.984     C6(AA)=   18.21
                     3  C6 for element                     39
Z= 39 CN= 0.000     C6(AA)= 2365.89
Z= 39 CN= 1.915     C6(AA)= 1132.30
Z= 39 CN= 2.890     C6(AA)=  451.08

#           XYZ [au]              R0(AA) [Ang.]  CN          C6(AA)     C8(AA)   C10(AA) [au]
  1  -1.00536   0.18315  -3.12492   y   2.110 11.345       451.1     86005.2  20087594.1
  2  -2.04811  -1.05717   0.61882   h   1.091  1.685         3.0        36.6       541.9
  3  -3.30171   3.30291  -6.24203   c   1.455  4.100        18.3       528.1     18711.6
  4  -5.21164   2.53376  -4.50032   c   1.455  4.065        18.3       528.6     18729.5
  5  -4.59105   3.59304  -2.11440   c   1.455  4.069        18.3       528.6     18726.9
  6  -2.31688   4.98796  -2.34492   c   1.455  4.068        18.3       528.6     18727.5
  7  -1.48541   4.82344  -4.92038   c   1.455  4.071        18.3       528.6     18726.1
  8  -0.75604  -4.79768  -3.95083   c   1.455  4.060        18.3       528.7     18732.3
  9   1.75308  -3.88365  -4.26114   c   1.455  4.061        18.3       528.7     18731.7
 10   1.79877  -2.28074  -6.43662   c   1.455  4.073        18.3       528.5     18725.1
 11  -0.69693  -2.22353  -7.46236   c   1.455  4.094        18.3       528.2     18714.3
 12  -2.30183  -3.77167  -5.91919   c   1.455  4.060        18.3       528.7     18732.6
 13   1.07670  -0.15389   3.09331   y   2.110 11.343       451.1     86005.2  20087594.1
 14   2.11859   1.09702  -0.64803   h   1.091  1.683         3.0        36.6       541.9
 15   3.18629  -3.35474   6.29631   c   1.455  4.083        18.3       528.4     18719.7
 16   5.16109  -2.59136   4.63209   c   1.455  4.097        18.3       528.2     18712.9
 17   4.65567  -3.64401   2.19830   c   1.455  4.047        18.3       529.0     18740.6
 18   2.35144  -4.96433   2.33383   c   1.455  4.065        18.3       528.7     18729.6
 19   1.43649  -4.77830   4.91479   c   1.455  4.081        18.3       528.4     18720.8
 20   0.84193   4.81202   3.91031   c   1.455  4.069        18.3       528.6     18727.4
 21  -1.70348   3.90933   4.17909   c   1.455  4.065        18.3       528.6     18729.5
 22  -1.79703   2.32039   6.33187   c   1.455  4.071        18.3       528.5     18725.9
 23   0.68815   2.24596   7.42901   c   1.455  4.091        18.3       528.3     18716.0
 24   2.31956   3.81392   5.89629   c   1.455  4.059        18.3       528.7     18732.7
 25  -1.40233  -6.05956  -2.44757   h   1.091  1.010         3.1        37.3       552.4
 26   3.36986  -4.33528  -3.06601   h   1.091  1.012         3.1        37.3       552.3
 27   3.46216  -1.33445  -7.21618   h   1.091  1.010         3.1        37.3       552.4
 28  -1.27552  -1.20343  -9.16213   h   1.091  1.011         3.1        37.3       552.3
 29   5.81367  -3.41411   0.50954   h   1.091  1.010         3.1        37.3       552.4
 30   6.81264  -1.46455   5.14757   h   1.091  1.011         3.1        37.3       552.4
 31  -3.48988   1.37090   7.09085   h   1.091  1.008         3.1        37.3       552.6
 32   1.53465   6.06838   2.45680   h   1.091  1.012         3.1        37.3       552.3
 33  -3.28785   4.36792   2.99209   h   1.091  1.014         3.1        37.3       552.1
 34   1.23348   1.22491   9.14053   h   1.091  1.011         3.1        37.3       552.4
 35  -6.86648   1.37366  -4.92795   h   1.091  1.010         3.1        37.3       552.4
 36  -1.37230   6.02142  -0.83179   h   1.091  1.012         3.1        37.3       552.3
 37  -3.26520   2.84938  -8.25493   h   1.091  1.011         3.1        37.3       552.3
 38  -5.68604   3.34628  -0.37488   h   1.091  1.010         3.1        37.3       552.4
 39   1.37146  -6.03800   0.71087   h   1.091  0.995         3.1        37.4       553.7
 40   3.05812  -2.92693   8.31268   h   1.091  1.011         3.1        37.3       552.3
 41  -0.35603  -5.73388   5.70086   h   1.091  0.993         3.1        37.4       553.8
 42   4.30597   4.15104   6.23080   h   1.091  1.012         3.1        37.3       552.3
 43   0.16239   5.72478  -5.72013   h   1.091  1.012         3.1        37.3       552.3
 44  -4.29506  -4.11028  -6.19990   h   1.091  1.012         3.1        37.3       552.3

molecular C6(AA) [au] =     27206.05

           DFT-D V3
 DF tpssh                                             
 parameters
 s6       :    1.0000
 s8       :    1.2190
 rs6      :    1.2230
 rs18     :    1.0000
 alpha6   :   14.0000
 alpha8   :   16.0000
 k1-k3    :   16.0000    1.3333   -4.0000
 
 Edisp /kcal,au:   -27.6652 -0.04408731

 E6    /kcal :    -8.5713
 E8    /kcal :   -19.0939
 % E8        : 69.02
 
 doing analytical gradient O(N^2) ...
 
 |G|=  2.350352587018408E-002

 setting up bound for integral derivative estimation

 increment for numerical differentiation : 0.00050000

 biggest AO integral is expected to be     3.528781981
 biggest cartesian 1st derivative AO integral is expected to be     5.507249476

 biggest 1-particle AO density matrix element is expected to be    2.0861300461

 setting up bound for integral derivative estimation

 increment for numerical differentiation : 0.00050000

 biggest AO integral is expected to be     3.528781981
 biggest cartesian 1st derivative AO integral is expected to be     5.507249476

 2e-integral 1st. derivatives will be neglected if expon. factor < 0.100000E-06
 outer boundary for 2e-integral derivative neglection is 0.382971E-08


 performing derivative 2e integral batch statistics 

 #        istart  iend      jstart  jend  cost
     1         1   133         1    31          956503595.00
     2       133   142        32   116          956667942.00
     3       142   151       117    45          960333906.00
     4       151   157        46    72          956771529.00
     5       157   162        73   109          957735987.00
     6       162   174       110   126          957006288.00
     7       174   183       127    29          967467036.00
     8       183   183        30   129          972721296.00
     9       183   183       130   162          684021456.00
    10       183   184       163   123          688809984.00
    11       184   185       124   183          711547116.00
    12       185   188       184    14          683512512.00
    13       188   190        15    23          687481980.00
    14       190   192        24    26          690088968.00
    15       192   194        27    10          683261868.00
    16       194   195        11    46          690040884.00
    17       195   195        47    79          491530800.00
    18       195   195        80   119          488508048.00
    19       195   195       120   140          500207976.00
    20       195   195       141   152          489472416.00
    21       195   195       153   167          502643376.00
    22       195   195       168   189          489338064.00
    23       195   196       190    69          490233240.00
    24       196   196        70   145          496302810.00
    25       196   196       146   183          365484222.00
    26       196   197       184   144          350813232.00
    27       197   198       145   106          350268654.00
    28       198   199       107    48          351171684.00
    29       199   199        49   195          393315504.00
    30       199   200       196   149          353974356.00
    31       200   201       150   108          350090928.00
    32       201   201       109   201          353178348.00
    33       202   202         1   154          249178260.00
    34       202   203       155    15          249244920.00
    35       203   203        16   153          252647280.00
    36       203   203       154   203          257583546.00
    37       204   204         1   155          260257158.00
    38       204   205       156    50          249756408.00
    39       205   205        51   157          268318410.00
    40       205   206       158    63          252592830.00
    41       206   206        64   153          186719682.00
    42       206   206       154   195          194914080.00
    43       206   207       196    16          179163656.00
    44       207   207        17    41          178592410.00
    45       207   207        42   100          179602900.00
    46       207   207       101   121          194004850.00
    47       207   207       122   130          184922550.00
    48       207   207       131   139          208347960.00
    49       207   207       140   155          128731710.00
    50       207   207       156   182          129196650.00
    51       207   207       183   186          128237580.00
    52       207   207       187   193          145104900.00
    53       207   207       194   200          132554520.00
    54       207   208       201    41          128116640.00
    55       208   208        42    57          131676320.00
    56       208   208        58    74          128351950.00
    57       208   208        75    92           90879670.00
    58       208   208        93   110           91320420.00
    59       208   208       111   123           96534000.00
    60       208   208       124   134           92345910.00
    61       208   208       135   143          110080980.00
    62       208   208       144   148          101779170.00
    63       208   208       149   153          122584380.00
    64       208   208       154   158          102227010.00
    65       208   208       159   161           78153900.00
    66       208   208       162   172           72745260.00
    67       208   208       173   183          124644660.00
    68       208   208       184   195          114132000.00
    69       208   208       196   199           82102500.00
    70       208   208       200   203           85683960.00
    71       208   208       204   207           96556780.00
    73       208   208       208   207           29100300.00
 totalcost check=   26109194075.0000      ntasks=                    72

 cpu time for derivative 2e integral statistics :      0.84 sec

 
   end of statistics output by subroutine kunz .
                     ***
 
          Overall gridpoints after grid construction =        677136

 Integrated ground state density     :   164.0000100417223    


          ------------------------------------------------
           cartesian gradient of the energy (hartree/bohr)
          ------------------------------------------------

  ATOM      1 y           2 h           3 c           4 c           5 c 
dE/dx  0.2996490D-02 -0.3269109D-02 -0.3817299D-02 -0.6698910D-02  0.3404700D-02
dE/dy  0.2105190D-03 -0.1401354D-02 -0.4752821D-02 -0.1745818D-02  0.3729882D-02
dE/dz  0.2051806D-02  0.1035535D-02 -0.1289931D-02  0.2782670D-02 -0.7219220D-02

  ATOM      6 c           7 c           8 c           9 c          10 c 
dE/dx -0.5947467D-02  0.1969804D-01  0.3998550D-02  0.1729381D-02  0.7034899D-02
dE/dy -0.1669452D-03  0.1063765D-01 -0.3095066D-02 -0.4191111D-02  0.4900010D-02
dE/dz  0.7685743D-02 -0.7582995D-02  0.8895506D-03  0.3872801D-02 -0.1844003D-02

  ATOM     11 c          12 c          13 y          14 h          15 c 
dE/dx  0.6113135D-03 -0.2192451D-01 -0.2822530D-02  0.2930818D-02 -0.8137081D-02
dE/dy  0.3597608D-02 -0.6635524D-02  0.6235643D-03  0.1658704D-02 -0.7145003D-02
dE/dz -0.2259161D-02 -0.2568212D-02 -0.2622440D-02 -0.8607272D-03 -0.7513605D-02

  ATOM     16 c          17 c          18 c          19 c          20 c 
dE/dx -0.1339641D-02 -0.2320120D-02  0.2987896D-01  0.3147899D-01  0.1121882D-01
dE/dy -0.2599428D-03 -0.8592189D-02  0.2112137D-01  0.2575254D-01  0.4400573D-02
dE/dz  0.1671457D-02 -0.2049742D-02  0.9851132D-02  0.1125086D-01 -0.7664024D-03

  ATOM     21 c          22 c          23 c          24 c          25 h 
dE/dx -0.1578407D-01 -0.8103004D-02  0.1333044D-02  0.1801716D-01 -0.1357616D-03
dE/dy  0.6522539D-03  0.2321709D-02 -0.7740600D-02  0.1641549D-01 -0.1016732D-02
dE/dz -0.3372624D-02 -0.1102368D-01  0.9983355D-02 -0.1101741D-01  0.2038386D-02

  ATOM     26 h          27 h          28 h          29 h          30 h 
dE/dx  0.1051292D-02  0.1719781D-02 -0.5028645D-03 -0.1020259D-02  0.7368518D-03
dE/dy -0.6950679D-04  0.3263432D-04  0.1141999D-02 -0.3894681D-03  0.8003326D-03
dE/dz  0.1093059D-02 -0.9057692D-03 -0.1711706D-02 -0.8466604D-03  0.1774726D-03

  ATOM     31 h          32 h          33 h          34 h          35 h 
dE/dx -0.6410200D-02 -0.1173038D-02  0.6271760D-02  0.7035044D-03 -0.1583466D-02
dE/dy -0.2801231D-02 -0.4333225D-02 -0.2622467D-02 -0.1637057D-02 -0.9514445D-03
dE/dz  0.3518488D-02  0.5295691D-02  0.5896063D-02  0.2238106D-02  0.7743058D-04

  ATOM     36 h          37 h          38 h          39 h          40 h 
dE/dx  0.6302329D-03 -0.5275043D-03 -0.1436329D-02 -0.1704734D-01 -0.9569521D-03
dE/dy  0.4047386D-03 -0.6123369D-03 -0.7425935D-03 -0.1812222D-01 -0.2002113D-03
dE/dz  0.1994088D-02 -0.1457499D-02  0.3150517D-02 -0.2903396D-01  0.2337982D-02

  ATOM     41 h          42 h          43 h          44 h 
dE/dx -0.2851879D-01 -0.6880635D-02 -0.6154658D-02  0.7063919D-02
dE/dy -0.1643524D-01 -0.1391706D-02 -0.2697763D-02  0.1407056D-02
dE/dz  0.1332589D-01 -0.8434014D-03  0.3221624D-02  0.1336763D-02
 
 resulting FORCE  (fx,fy,fz) = (-.304D-05,0.590D-04,-.127D-04)
 resulting MOMENT (mx,my,mz) = (0.769D-04,-.516D-03,0.493D-03)


 exx =       0.204412 eyy =       0.122108 ezz =       0.139220
 eyz =       0.014820 exz =      -0.049056 exy =       0.062019


 **********************************************************************
  |maximum component of gradient| : 0.31478992E-01  (atom 19 c )       
   gradient norm                  : 0.98245109E-01
 **********************************************************************

 <getgrd> : data group $grad  is missing 

   ***  cartesian gradients written onto <gradient>  ***


     --- calculation of the energy gradient finished ---


    rdgrad.all profiling
[...]
    h       22     16     11   def2-SVP   [3s1p1d|5s2p1d]
    c       20     70     49   def2-SVP   [6s4p3d1f1g|12s5p4d2f1g]
   ---------------------------------------------------------------------------
   total:   44   1950   1400
   ---------------------------------------------------------------------------

   total number of primitive shells          :   59
   total number of contracted shells         :  456
   total number of cartesian basis functions : 1720
   total number of SCF-basis functions       : 1400


 symmetry group of the molecule :   c1 

 the group has the following generators :
   c1(z)

    1 symmetry operations found

 there are 1 real representations :   a   

 maximum number of shells which are related by symmetry :  1

 ==============================================================================
                      COSMO switched on
 ==============================================================================
 COSMO stati: segments per atom: H   32 other atoms   92
 COSMO statistics: nps   1447 npspher:    551
 COSMO surface:
   number of segments: 1447
   area (bohr**2):     1181.781406
   volume (bohr**3):   2895.067156
 COSMO: check number of disjunct cavities:

       ... OK contiguous cavity found

    mo occupation :
   irrep   mo's   occupied
    a      452       82
 
 number of basis functions   :                    452
 number of occupied orbitals :                     82
 
  
           ------------------
           density functional
           ------------------
 TPSS global hybrid functional
 exchange:    9/10 (LDA+TPSS) + 1/10 HF
 correlation: LDA (PW) + TPSS

 iterations will be done with small grid
  
 spherical integration : Lebedev's spherical grid
 spherical gridsize    :                     5
    i.e. gridpoints    :                   590
 value for diffuse not defined
 radial integration    : Chebyshev 2nd kind (scaling 3)
 radial gridsize       :                     8
 integration cells     :                    44
 partition function    : becke
 partition sharpness   :                     3
  

 biggest AO integral is expected to be     3.528781981
  
           ------------------------
               RI-J - INFORMATION
           ------------------------
 Memory core needed for (P|Q) and Cholesky      8 MByte on GA
 Memory core minimum needed except           1 MByte 
  
 ****************************************
 Memory allocated for RI-J 1 MByte
 plus additional 8 MByte (pqmatrix)  (GA)
 ****************************************
                                            
allocating par_xzuhag(  189.07 MB)

          ------------------------
          nuclear repulsion energy  :   1828.61420591    
          ------------------------

  _________________________________
 |                                 |
 |         DFTD3 V3.1 Rev 0        |
 | S.Grimme, University Bonn       |
 |            June  2014           |
 |   see standalone version        |
 |       dftd3 -h for options      |
 |_________________________________|
 
 Please cite DFT-D3 work done with this code as:
 S. Grimme, J. Antony, S. Ehrlich and H. Krieg,
 J. Chem. Phys, 132 (2010), 154104.
 If used with BJ-damping cite also
 S. Grimme, S. Ehrlich and L. Goerigk,
 J. Comput. Chem. 32 (2011), 1456-1465
 For DFT-D2 the reference is
 S. Grimme, J. Comput. Chem., 27 (2006), 1787-1799
 
C6 coefficients used:
                     2  C6 for element                      1
Z=  1 CN= 0.912     C6(AA)=    3.03
Z=  1 CN= 0.000     C6(AA)=    7.59
                     5  C6 for element                      6
Z=  6 CN= 0.000     C6(AA)=   49.11
Z=  6 CN= 0.987     C6(AA)=   43.25
Z=  6 CN= 1.998     C6(AA)=   29.36
Z=  6 CN= 2.999     C6(AA)=   25.78
Z=  6 CN= 3.984     C6(AA)=   18.21
                     3  C6 for element                     39
Z= 39 CN= 0.000     C6(AA)= 2365.89
Z= 39 CN= 1.915     C6(AA)= 1132.30
Z= 39 CN= 2.890     C6(AA)=  451.08

#           XYZ [au]              R0(AA) [Ang.]  CN          C6(AA)     C8(AA)   C10(AA) [au]
  1  -1.04276   0.18909  -3.16173   y   2.110 11.478       451.1     86005.2  20087594.1
  2  -1.98382  -1.02867   0.58827   h   1.091  1.712         3.0        36.6       541.9
  3  -3.28700   3.32848  -6.31096   c   1.455  4.097        18.3       528.2     18713.0
  4  -5.18575   2.52152  -4.58923   c   1.455  4.103        18.3       528.1     18710.4
  5  -4.60056   3.53974  -2.17170   c   1.455  4.097        18.3       528.2     18713.1
  6  -2.32922   4.95606  -2.39566   c   1.455  4.096        18.3       528.2     18713.6
  7  -1.51549   4.81847  -4.95369   c   1.455  4.095        18.3       528.2     18714.2
  8  -0.81228  -4.72950  -3.95058   c   1.455  4.097        18.3       528.2     18713.2
  9   1.70613  -3.84295  -4.24474   c   1.455  4.095        18.3       528.2     18713.9
 10   1.78750  -2.28952  -6.43655   c   1.455  4.094        18.3       528.2     18714.5
 11  -0.67434  -2.22454  -7.50174   c   1.455  4.098        18.3       528.2     18712.7
 12  -2.28792  -3.71797  -5.95622   c   1.455  4.104        18.3       528.1     18710.1
 13   1.04866  -0.18557   3.16005   y   2.110 11.478       451.1     86005.2  20087594.1
 14   1.99175   1.02945  -0.59056   h   1.091  1.712         3.0        36.6       541.9
 15   3.22782  -3.35442   6.32507   c   1.455  4.097        18.3       528.2     18712.9
 16   5.15263  -2.56066   4.62614   c   1.455  4.104        18.3       528.1     18710.3
 17   4.58443  -3.56751   2.19979   c   1.455  4.097        18.3       528.2     18713.0
 18   2.29785  -4.96318   2.39542   c   1.455  4.096        18.3       528.2     18713.7
 19   1.45758  -4.82442   4.94466   c   1.455  4.094        18.3       528.2     18714.3
 20   0.83596   4.73872   3.92096   c   1.455  4.097        18.3       528.2     18713.3
 21  -1.68073   3.85806   4.24567   c   1.455  4.095        18.3       528.2     18713.8
 22  -1.74266   2.31808   6.44777   c   1.455  4.094        18.3       528.2     18714.3
 23   0.72966   2.25623   7.48887   c   1.455  4.098        18.3       528.2     18712.8
 24   2.32989   3.73737   5.91815   c   1.455  4.103        18.3       528.1     18710.4
 25  -1.49996  -5.97965  -2.46489   h   1.091  1.012         3.1        37.3       552.3
 26   3.30597  -4.29526  -3.03410   h   1.091  1.013         3.1        37.3       552.2
 27   3.45771  -1.33812  -7.18391   h   1.091  1.011         3.1        37.3       552.4
 28  -1.22571  -1.22543  -9.21539   h   1.091  1.012         3.1        37.3       552.3
 29   5.72197  -3.32075   0.50029   h   1.091  1.012         3.1        37.3       552.3
 30   6.79868  -1.41717   5.10988   h   1.091  1.012         3.1        37.3       552.3
 31  -3.40662   1.37422   7.21826   h   1.091  1.011         3.1        37.3       552.4
 32   1.51126   5.97842   2.42097   h   1.091  1.012         3.1        37.3       552.3
 33  -3.29201   4.30617   3.04865   h   1.091  1.013         3.1        37.3       552.2
 34   1.29679   1.26688   9.20300   h   1.091  1.012         3.1        37.3       552.3
 35  -6.82600   1.36111  -5.05194   h   1.091  1.012         3.1        37.3       552.3
 36  -1.38866   5.99604  -0.89101   h   1.091  1.013         3.1        37.3       552.2
 37  -3.21744   2.89875  -8.32327   h   1.091  1.012         3.1        37.3       552.3
 38  -5.71730   3.28627  -0.45956   h   1.091  1.012         3.1        37.3       552.3
 39   1.36343  -5.99002   0.87807   h   1.091  1.013         3.1        37.3       552.2
 40   3.13998  -2.92954   8.33771   h   1.091  1.012         3.1        37.3       552.3
 41  -0.23648  -5.71730   5.71037   h   1.091  1.011         3.1        37.3       552.4
 42   4.34091   4.07929   6.21838   h   1.091  1.012         3.1        37.3       552.3
 43   0.16135   5.72541  -5.74049   h   1.091  1.011         3.1        37.3       552.4
 44  -4.29519  -4.06168  -6.27847   h   1.091  1.012         3.1        37.3       552.3

molecular C6(AA) [au] =     27197.18

           DFT-D V3
 DF tpssh                                             
 parameters
 s6       :    1.0000
 s8       :    1.2190
 rs6      :    1.2230
 rs18     :    1.0000
 alpha6   :   14.0000
 alpha8   :   16.0000
 k1-k3    :   16.0000    1.3333   -4.0000
 
 Edisp /kcal,au:   -27.6660 -0.04408855

 E6    /kcal :    -8.5711
 E8    /kcal :   -19.0949
 % E8        : 69.02
 nuclear repulsion energy                  =    1828.614205905
 empirical dispersive energy correction    =      -0.044088548
 nuclear repulsion + dispersion correction =    1828.570117357


         -----------------
         -S,T+V- integrals
         -----------------

 1e-integrals will be neglected if expon. factor < 0.693353E-12


          ----------------
          -ecp-  integrals
          ----------------
 
   Difference densities algorithm switched on.
   The maximal number of linear combinations of
   difference densities is                    20 .

 DIIS switched on: error vector is FDS-SDF
 Max. Iterations for DIIS is     :   4
 DIIS matrix (see manual) 
    Scaling factor of diagonals  :  1.200
    threshold for scaling factor :  0.000

 scf convergence criterion : increment of total energy < .1000000D-06
                  and increment of one-electron energy < .1000000D-03

  MOs are in ASCII format !


 automatic virtual orbital shift switched on 
      shift if e(lumo)-e(homo) <  2.0000000    


 reading orbital data $scfmo  from file mos
 orbital characterization : scfconv=7
 mo-orthogonalization by Cholesky decomposition

 DSCF restart information will be dumped onto file mos


 Starting SCF iterations

          Overall gridpoints after grid construction =        213228

 ITERATION  ENERGY          1e-ENERGY        2e-ENERGY     NORM[dD(SAO)]  TOL
   1  -851.77917734908    -4808.0841520     2127.7348573    0.000D+00 0.692D-11
                            Exc = -114.955793044     Coul =  2254.76412292    
                            exK = -12.0734725868    
                              N = 164.00194937    
                          Ediel =-0.159699311326E-01
                            current damping = 0.700
 
          max. resid. norm for Fia-block=  1.098D-04 for orbital     81a         
          max. resid. fock norm         =  1.609D-03 for orbital    452a         
          irrep a   : virtual orbitals shifted by    1.73009

 ITERATION  ENERGY          1e-ENERGY        2e-ENERGY     NORM[dD(SAO)]  TOL
   2  -851.77917760783    -4808.0840670     2127.7347720    0.518D-03 0.439D-11
                            Exc = -114.955793085      Eck =  2242.69056507    
                              N = 164.00194938    
                          Ediel =-0.159700899605E-01
                            current damping = 0.650
 
          Norm of current diis error: 0.10500E-02
          max. resid. norm for Fia-block=  9.265D-05 for orbital     81a         
          max. resid. fock norm         =  6.625D-04 for orbital    452a         
          irrep a   : virtual orbitals shifted by    1.73803

 ENERGY CONVERGED !

          Overall gridpoints after grid construction =        676861

 ITERATION  ENERGY          1e-ENERGY        2e-ENERGY     NORM[dD(SAO)]  TOL
   3  -851.77851317771    -4808.0840201     2127.7353896    0.671D-04 0.309D-11
                            Exc = -114.955127208      Eck =  2242.69051678    
                              N = 164.00010891    
                          Ediel =-0.159701439609E-01
                            current damping = 0.600
 
          Norm of current diis error: 0.83112E-03
          max. resid. norm for Fia-block=  8.024D-05 for orbital     81a         
          max. resid. fock norm         =  2.610D-04 for orbital    452a         

 End of SCF iterations
 COSMO: write data to file cosmo_transfer.tmp

   convergence criteria satisfied after    3 iterations


                  ------------------------------------------ 
                 |  total energy      =   -851.77851317771  |
                  ------------------------------------------ 
                 :  kinetic energy    =    790.26455066702  :
                 :  potential energy  =  -1642.04306384473  :
                 :  virial theorem    =      1.92778173955  :
                 :  wavefunction norm =      1.00000000000  :
                  .......................................... 


 orbitals $scfmo  will be written to file mos

    irrep                 78a         79a         80a         81a         82a   
 eigenvalues H         -0.23279    -0.22709    -0.22529    -0.22403    -0.21354
            eV          -6.3345     -6.1793     -6.1305     -6.0961     -5.8109
 occupation              2.0000      2.0000      2.0000      2.0000      2.0000 

    irrep                 83a         84a         85a         86a         87a   
 eigenvalues H         -0.05478    -0.03901    -0.02219    -0.00534     0.00675
            eV          -1.4906     -1.0614     -0.6038     -0.1453      0.1836
 
 ==============================================================================
                                  COSMO RESULTS
 ==============================================================================
  PARAMETER:
    nppa:      1082
    nspa:        92
    nsph:        32
    nps:       1447
    npspher:    551
    disex:   10.0000    
    disex2:  4429.97    
    rsolv [A]: 1.3000
    routf:     0.8500
    phsran:    0.0    
    ampran:   0.10E-04
    cavity:  closed
    epsilon:     7.600
    refind:     1.300
    fepsi:      0.8148148
  CAVITY VOLUME/AREA [a.u.]:
    surface: V1.0, A matrix: V1.0
    area:  1181.78
    volume:  2895.07
  SCREENING CHARGE:
    cosmo      :  -0.036519
    correction :   0.035617
    total      :  -0.000902
  ENERGIES [a.u.]:
    Total energy            =    -851.7785131777148
    Total energy + OC corr. =     -851.7788091257
    Dielectric energy       =       -0.0159701440
    Diel. energy + OC corr. =       -0.0162660919
  ELEMENT RADIUS [A]: ATOM LIST
    y  2.22: 1,13
    h  1.30: 2,14,25-44
    c  2.00: 3-12,15-24
 ==============================================================================
 
 
 
 ==============================================================================
                           electrostatic moments
 ==============================================================================

 reference point for electrostatic moments:    0.00000   0.00000   0.00000

 
              nuc           elec       ->  total
 ------------------------------------------------------------------------------
                          charge      
 ------------------------------------------------------------------------------
         164.000000    -164.000000       0.000000
 
 ------------------------------------------------------------------------------
                       dipole moment  
 ------------------------------------------------------------------------------
   x       0.026542      -0.022883       0.003659
   y       0.025414      -0.022690       0.002723
   z      -0.009686       0.008146      -0.001540
 
   | dipole moment | =     0.0048 a.u. =     0.0122 debye 
 
 ------------------------------------------------------------------------------
                     quadrupole moment
 ------------------------------------------------------------------------------
  xx    1246.323041   -1366.248732    -119.925691
  yy    2005.957738   -2140.956863    -134.999125
  zz    4011.609587   -4130.908032    -119.298445
  xy    -736.880048     746.184918       9.304870
  xz    1065.117152   -1065.417500      -0.300348
  yz     141.483011    -146.035770      -4.552759
 
     1/3  trace=    -124.741087
     anisotropy=      23.648507
 
 ==============================================================================
 

    ridft profiling
  --------------------------------------------------------------------
             module   cpu total (s)       %  wall total (s)       %

               RIDFT            43.3  100.00            38.3  100.00
         Ridft_b_scf             4.9   11.42             2.5    6.66
        b_scf_prelim             0.0    0.00             0.0    0.00
        b_scf_molinp             0.0    0.02             0.0    0.03
         b_scf_init0             0.0    0.00             0.0    0.01
        b_scf_auxbas             0.0    0.02             0.0    0.02
      b_scf_symmetry             1.6    3.78             1.5    3.95
         b_scf_cosmo             1.6    3.78             1.5    3.92
        cosmo.consts             0.0    0.05             0.0    0.05
       cosmo.setamat             1.3    3.10             1.3    3.51
          cosmo.chol             0.2    0.40             0.0    0.09
        b_scf_params             0.4    0.90             0.0    0.13
          b_scf_ri-j             2.5    5.77             0.6    1.61
    b_scf_ri-j_auxpq             2.5    5.69             0.6    1.60
     ri-j_auxpq_chol             0.3    0.72             0.0    0.10
         b_scf_1elec             0.2    0.42             0.2    0.48
       b_scf_moinput             0.2    0.49             0.2    0.42
     prepare.moinput             0.1    0.32             0.1    0.37
     moinput_orthmos             0.1    0.16             0.0    0.05
    b_scf_dft-dstmax             0.0    0.00             0.0    0.00
           Ridft_scf            38.3   88.51            35.7   93.26
          Scf_b_loop             0.0    0.08             0.0    0.02
                noga             0.0    0.00             0.0    0.00
            Scf_loop            37.2   85.97            35.2   91.97
     scf_loop_mkdmat             0.5    1.05             0.1    0.31
       scf_loop_ri-j             0.9    1.97             0.3    0.68
    ri-j_near_lpdrc1             0.0    0.10             0.0    0.03
    ri-j_near_lpdrc2             0.0    0.07             0.0    0.02
       scf_loop_ex-K            15.7   36.22            15.2   39.80
         scf_loop_k1            14.5   33.52            14.4   37.52
      scf_loop_cosmo             1.8    4.19             1.8    4.74
     cosmo.calcphipa             2.6    5.96             2.0    5.31
      cosmo.coschol2             0.0    0.06             0.0    0.07
     scf_loop_symcar             0.0    0.04             0.0    0.04
      scf_loop_dfmat             0.0    0.00             0.0    0.01
        scf_loop_dft            15.8   36.47            15.8   41.24
        dft_grid_con             1.2    2.80             1.2    3.17
         dft_xc_eval            14.5   33.38            14.4   37.75
     scf_loop_energy             0.0    0.00             0.0    0.00
     scf_loop_mkfock             1.7    4.04             1.7    4.57
        cosmo_mkfock             1.7    4.04             1.7    4.57
       cosmo.dohqmat             1.7    4.04             1.7    4.57
       scf_loop_diis             0.2    0.38             0.0    0.12
       scf_loop_diag             0.7    1.59             0.2    0.45
     scf_loop_modump             0.0    0.00             0.0    0.00
          Scf_a_loop             1.1    2.46             0.5    1.27
               Cosmo             0.9    2.06             0.3    0.82
           cosmo usa             0.0    0.02             0.0    0.02
         Ridft_a_scf             0.0    0.07             0.0    0.08
         a_scf_fanal             0.0    0.06             0.0    0.07
 


    ------------------------------------------------------------------------
         total  cpu-time :  43.46 seconds
         total wall-time :  38.84 seconds
    ------------------------------------------------------------------------

   ****  ridft : all done  ****


    2018-01-28 15:59:24.351 

 ridft ended normally
fine, there is no data group "$actual step"
next step = rdgrad
 energy change  : actual value =   0.8913E-06 threshold =   0.1000E-05
 geom. gradient : actual value =   0.1468E-03 threshold =   0.1000E-02

CONVERGENCY CRITERIA FULFILLED IN CYCLE 19

