[Molden Format]
[Title]
                                                                                
[Atoms] AU
 b     1    5 -.10561457363795E+02 0.22367217865351E+01 -.25088815158280E+00
 h     2    1 -.85109399514605E+01 0.31602399719845E+01 0.86631212114728E+00
 h     3    1 -.99508499681534E+01 0.11505183696253E+01 -.21363813705384E+01
 h     4    1 -.11880959205416E+02 0.12695723263390E+01 0.13083896712935E+01
 b     5    5 -.94697878298290E+01 0.53979732904592E+01 0.25084067503944E+00
 h     6    1 -.81503265096556E+01 0.63644679618504E+01 -.13088637838785E+01
 h     7    1 -.11520775283315E+02 0.44744841634689E+01 -.86552067690615E+00
 h     8    1 -.10079991121397E+02 0.64848090194067E+01 0.21361115154256E+01
[GTO]
    1 0
 s    5 1.00
 0.83931830086000E+03 -.56288835982463E-02
 0.12626464843000E+03 -.41832794609543E-01
 0.28620600763000E+02 -.18417488125788E+00
 0.78793722710000E+01 -.46839655028126E+00
 0.24088857172000E+01 -.44457930883349E+00
 s    1 1.00
 0.25105109036000E+00 0.10000000000000E+01
 s    1 1.00
 0.83648866069000E-01 0.10000000000000E+01
 p    3 1.00
 0.60332223619000E+01 -.54032500322758E-01
 0.12499157866000E+01 -.30194034393181E+00
 0.33871676350000E+00 -.77170791658218E+00
 p    1 1.00
 0.96415632351000E-01 0.10000000000000E+01
 d    1 1.00
 0.50000000000000E+00 0.10000000000000E+01
 
    2 0
 s    3 1.00
 0.13010701000000E+02 0.33485484812989E-01
 0.19622572000000E+01 0.23472187088125E+00
 0.44453796000000E+00 0.81377028525955E+00
 s    1 1.00
 0.12194962000000E+00 0.10000000000000E+01
 p    1 1.00
 0.80000000000000E+00 0.10000000000000E+01
 
    3 0
 s    3 1.00
 0.13010701000000E+02 0.33485484812989E-01
 0.19622572000000E+01 0.23472187088125E+00
 0.44453796000000E+00 0.81377028525955E+00
 s    1 1.00
 0.12194962000000E+00 0.10000000000000E+01
 p    1 1.00
 0.80000000000000E+00 0.10000000000000E+01
 
    4 0
 s    3 1.00
 0.13010701000000E+02 0.33485484812989E-01
 0.19622572000000E+01 0.23472187088125E+00
 0.44453796000000E+00 0.81377028525955E+00
 s    1 1.00
 0.12194962000000E+00 0.10000000000000E+01
 p    1 1.00
 0.80000000000000E+00 0.10000000000000E+01
 
    5 0
 s    5 1.00
 0.83931830086000E+03 -.56288835982463E-02
 0.12626464843000E+03 -.41832794609543E-01
 0.28620600763000E+02 -.18417488125788E+00
 0.78793722710000E+01 -.46839655028126E+00
 0.24088857172000E+01 -.44457930883349E+00
 s    1 1.00
 0.25105109036000E+00 0.10000000000000E+01
 s    1 1.00
 0.83648866069000E-01 0.10000000000000E+01
 p    3 1.00
 0.60332223619000E+01 -.54032500322758E-01
 0.12499157866000E+01 -.30194034393181E+00
 0.33871676350000E+00 -.77170791658218E+00
 p    1 1.00
 0.96415632351000E-01 0.10000000000000E+01
 d    1 1.00
 0.50000000000000E+00 0.10000000000000E+01
 
    6 0
 s    3 1.00
 0.13010701000000E+02 0.33485484812989E-01
 0.19622572000000E+01 0.23472187088125E+00
 0.44453796000000E+00 0.81377028525955E+00
 s    1 1.00
 0.12194962000000E+00 0.10000000000000E+01
 p    1 1.00
 0.80000000000000E+00 0.10000000000000E+01
 
    7 0
 s    3 1.00
 0.13010701000000E+02 0.33485484812989E-01
 0.19622572000000E+01 0.23472187088125E+00
 0.44453796000000E+00 0.81377028525955E+00
 s    1 1.00
 0.12194962000000E+00 0.10000000000000E+01
 p    1 1.00
 0.80000000000000E+00 0.10000000000000E+01
 
    8 0
 s    3 1.00
 0.13010701000000E+02 0.33485484812989E-01
 0.19622572000000E+01 0.23472187088125E+00
 0.44453796000000E+00 0.81377028525955E+00
 s    1 1.00
 0.12194962000000E+00 0.10000000000000E+01
 p    1 1.00
 0.80000000000000E+00 0.10000000000000E+01
 
[MO]
 Sym=     1a   
 Ene= -.76308751032942E+01
 Spin= Alpha
 Occup= 2.000000
     1 0.70162491978461E+00
     2 -.19929002439539E-01
     3 0.19801533961596E-01
     4 0.50862607705919E-03
     5 0.14735317023292E-02
     6 0.23425998103180E-03
     7 0.36257443922344E-03
     8 0.10495649756400E-02
     9 0.16635375720750E-03
    10 -.12675966961479E-03
    11 -.14807891666955E-03
    12 0.27483858628434E-03
    13 0.63275798668846E-04
    14 -.38360457896825E-03
    15 0.59816646481596E-04
    16 0.24208036289949E-02
    17 -.86671086290323E-02
    18 -.26057774198113E-03
    19 0.11378216172326E-03
    20 -.14988293425734E-03
    21 0.25042493054959E-03
    22 -.54108197853056E-02
    23 0.21669605456889E-03
    24 -.76178114323230E-03
    25 -.95470025635286E-03
    26 0.25060420265431E-03
    27 -.54091744761974E-02
    28 -.72256798770094E-03
    29 -.70360022244657E-03
    30 0.72183885302270E-03
    31 0.70163796832489E+00
    32 -.19929433538401E-01
    33 0.19801902977427E-01
    34 -.50908647671112E-03
    35 -.14735716301858E-02
    36 -.23349013615951E-03
    37 -.36236713531776E-03
    38 -.10496339970412E-02
    39 -.16676665352893E-03
    40 -.12682669366824E-03
    41 -.14808009606876E-03
    42 0.27490678973701E-03
    43 0.63148426391026E-04
    44 -.38355154628220E-03
    45 0.60030346093277E-04
    46 0.25044324178063E-03
    47 -.54108361002618E-02
    48 0.72270786543835E-03
    49 0.70351895095362E-03
    50 -.72214375390878E-03
    51 0.24208036314610E-02
    52 -.86671087006874E-02
    53 0.26053907819026E-03
    54 -.11376395533052E-03
    55 0.14996407913607E-03
    56 0.25060831486870E-03
    57 -.54092661139092E-02
    58 -.21651498473981E-03
    59 0.76185500245489E-03
    60 0.95444171577981E-03
 Sym=     2a   
 Ene= -.76303909095477E+01
 Spin= Alpha
 Occup= 2.000000
     1 0.70132134347172E+00
     2 -.23196314133542E-01
     3 0.19970090635676E-01
     4 0.12406503363234E-02
     5 0.35933614104782E-02
     6 0.57072501318795E-03
     7 0.10354664641869E-02
     8 0.30000264241555E-02
     9 0.47705765821910E-03
    10 0.29601833002319E-03
    11 -.76154038653651E-03
    12 0.46552205651331E-03
    13 -.46856867488902E-03
    14 -.13000774702104E-03
    15 -.21086039875770E-03
    16 0.22520392798001E-07
    17 -.81211381497331E-07
    18 -.28282197006415E-03
    19 -.81898775737629E-03
    20 -.12998497043452E-03
    21 0.61342245551342E-03
    22 -.29139650561668E-02
    23 0.21358211971890E-03
    24 -.34219499732573E-03
    25 -.63087626155898E-03
    26 0.61379749552898E-03
    27 -.29153054852858E-02
    28 -.43588025590406E-03
    29 -.30225683417342E-03
    30 0.52816086516473E-03
    31 -.70130828913466E+00
    32 0.23195942993784E-01
    33 -.19969721700160E-01
    34 0.12411042130420E-02
    35 0.35933054698383E-02
    36 0.56989374272757E-03
    37 0.10364938548296E-02
    38 0.29999426273813E-02
    39 0.47520852526686E-03
    40 -.29608727771656E-03
    41 0.76154965833234E-03
    42 -.46546238061579E-03
    43 0.46846098029207E-03
    44 0.13005159601138E-03
    45 0.21106127322773E-03
    46 -.61342363339019E-03
    47 0.29138631258197E-02
    48 -.43599088774052E-03
    49 -.30189112177223E-03
    50 0.52863074833793E-03
    51 0.22547442685764E-07
    52 -.80560125096470E-07
    53 -.28281735109091E-03
    54 -.81898980906009E-03
    55 -.12998228987465E-03
    56 -.61378665592859E-03
    57 0.29152059647586E-02
    58 0.21322075533781E-03
    59 -.34250387014081E-03
    60 -.63048267612367E-03
 Sym=     3a   
 Ene= -.87605867779524E+00
 Spin= Alpha
 Occup= 2.000000
     1 0.16058186146515E+00
     2 0.29718502411330E+00
     3 0.46492693693682E-01
     4 -.36719373513637E-01
     5 -.10635061675162E+00
     6 -.16890439409345E-01
     7 0.24671060743414E-02
     8 0.71476753290406E-02
     9 0.11364861034172E-02
    10 -.14501680462027E-02
    11 0.71470363858820E-02
    12 -.56968683396793E-02
    13 0.32841133532711E-02
    14 0.38028221606900E-02
    15 0.12536099026180E-02
    16 0.21959817200516E+00
    17 0.38250747323765E-01
    18 -.16572209776765E-01
    19 0.72371484997125E-02
    20 -.95411520200033E-02
    21 0.86130188127658E-01
    22 0.15698988588906E-01
    23 -.25362700754953E-02
    24 0.82476873428218E-02
    25 0.10666853160538E-01
    26 0.86125947496497E-01
    27 0.15696807934067E-01
    28 0.80059239872368E-02
    29 0.75969282446539E-02
    30 -.81487515231068E-02
    31 0.16058185916887E+00
    32 0.29718502273644E+00
    33 0.46492698754563E-01
    34 0.36732155487932E-01
    35 0.10634982180396E+00
    36 0.16867618541503E-01
    37 -.24693399886655E-02
    38 -.71475382514561E-02
    39 -.11324992482591E-02
    40 -.14493305706614E-02
    41 0.71468858609376E-02
    42 -.56975552902761E-02
    43 0.32854835350778E-02
    44 0.38021810357407E-02
    45 0.12510966913730E-02
    46 0.86130016188309E-01
    47 0.15698859982279E-01
    48 -.80067498537775E-02
    49 -.75937581417627E-02
    50 0.81525933748421E-02
    51 0.21959816686794E+00
    52 0.38250747369466E-01
    53 0.16576995496808E-01
    54 -.72374454751073E-02
    55 0.95326080143921E-02
    56 0.86126121624041E-01
    57 0.15696934171271E-01
    58 0.25333345443838E-02
    59 -.82506245603441E-02
    60 -.10663980724249E-01
 Sym=     4a   
 Ene= -.63251292198112E+00
 Spin= Alpha
 Occup= 2.000000
     1 0.14887332794681E+00
     2 0.30107450882362E+00
     3 0.11814077243664E+00
     4 0.41220159094654E-01
     5 0.11936225096588E+00
     6 0.18942417625645E-01
     7 -.44880214032361E-02
     8 -.12964456607482E-01
     9 -.20384420721279E-02
    10 -.44768945687041E-03
    11 -.55061564310008E-02
    12 0.59538458878712E-02
    13 -.12199158905394E-02
    14 -.59714193699463E-02
    15 -.10925382365968E-03
    16 0.64141463695065E-07
    17 0.29424275742329E-07
    18 -.35389014893080E-02
    19 -.10247942420195E-01
    20 -.16264864710093E-02
    21 0.19684554513264E+00
    22 0.74858899678364E-01
    23 -.50649526576620E-02
    24 0.65926240366424E-02
    25 0.13805580187306E-01
    26 0.19687340238294E+00
    27 0.74847663993370E-01
    28 0.93119167159163E-02
    29 0.57062291702070E-02
    30 -.11853295581765E-01
    31 -.14887333746409E+00
    32 -.30107452822323E+00
    33 -.11814078389922E+00
    34 0.41217866443249E-01
    35 0.11936243041701E+00
    36 0.18946537106320E-01
    37 -.44663655246243E-02
    38 -.12965803653765E-01
    39 -.20771015521602E-02
    40 0.44858189298277E-03
    41 0.55059969930514E-02
    42 -.59545788860341E-02
    43 0.12213751122384E-02
    44 0.59707376834151E-02
    45 0.10657720929902E-03
    46 -.19684528084894E+00
    47 -.74858847502878E-01
    48 0.93102766770630E-02
    49 0.57010133225610E-02
    50 -.11854404637784E-01
    51 -.35846391341571E-07
    52 -.16436627308481E-07
    53 -.35388996103067E-02
    54 -.10247943027207E-01
    55 -.16264851563107E-02
    56 -.19687372400973E+00
    57 -.74847732910161E-01
    58 -.50629977089759E-02
    59 0.65978224253855E-02
    60 0.13806128143864E-01
 Sym=     5a   
 Ene= -.55429150944812E+00
 Spin= Alpha
 Occup= 2.000000
     1 0.22188730795444E-07
     2 0.47312176489067E-07
     3 0.41420525037639E-07
     4 0.20423386546502E+00
     5 -.89178357897229E-01
     6 0.11751258757025E+00
     7 -.29051627865898E-01
     8 0.12685303043470E-01
     9 -.16715529387461E-01
    10 -.10109673210169E-01
    11 0.12785594093009E-01
    12 -.26759208828392E-02
    13 -.14356803383765E-01
    14 -.60434931573436E-02
    15 -.85548594173400E-02
    16 -.34376973297634E+00
    17 -.20261330712694E+00
    18 0.12426182422213E-01
    19 -.54270113122630E-02
    20 0.71569573493618E-02
    21 -.11214065024565E-05
    22 -.45989502386184E-06
    23 -.35258767759063E-02
    24 0.15395395132375E-02
    25 -.20288147382811E-02
    26 0.11907153836671E-05
    27 0.48838471216825E-06
    28 -.35265677228402E-02
    29 0.15399287929422E-02
    30 -.20292198466349E-02
    31 -.18392624074812E-07
    32 -.40375996959024E-07
    33 -.30165949162220E-07
    34 0.20423383547959E+00
    35 -.89178370696906E-01
    36 0.11751258834816E+00
    37 -.29051624555987E-01
    38 0.12685305182325E-01
    39 -.16715532953394E-01
    40 0.10113429362360E-01
    41 -.12785492660315E-01
    42 0.26720632979553E-02
    43 0.14355721505780E-01
    44 0.60408687910859E-02
    45 0.85564714596997E-02
    46 -.11622262728606E-05
    47 -.47746084156502E-06
    48 -.35258448069652E-02
    49 0.15396120431531E-02
    50 -.20288020816264E-02
    51 0.34376972363293E+00
    52 0.20261330034464E+00
    53 0.12432103434549E-01
    54 -.54273771778294E-02
    55 0.71463883570457E-02
    56 0.11211582592180E-05
    57 0.45918926792898E-06
    58 -.35265997411799E-02
    59 0.15398556371098E-02
    60 -.20292308096740E-02
 Sym=     6a   
 Ene= -.53738177905755E+00
 Spin= Alpha
 Occup= 2.000000
     1 0.24648667678369E-04
     2 0.41550516560417E-04
     3 0.62918625692525E-04
     4 -.14487468581605E+00
     5 0.90722187088216E-02
     6 0.25867209312255E+00
     7 0.46889628588029E-01
     8 -.29164436764365E-02
     9 -.83705304871482E-01
    10 -.10118118480328E-02
    11 0.17632454230116E-03
    12 0.83548730573168E-03
    13 -.16551428570061E-02
    14 0.76727363426263E-03
    15 0.30339009987516E-02
    16 -.97950510949435E-04
    17 -.62581240725028E-04
    18 0.47704272870885E-02
    19 -.29773906328220E-03
    20 -.85035833863169E-02
    21 0.20966130019860E+00
    22 0.86449527559364E-01
    23 -.20741907150436E-02
    24 0.65826042395979E-02
    25 0.86001407000409E-02
    26 -.20948201195265E+00
    27 -.86382456225267E-01
    28 -.64327935456430E-02
    29 -.60562098819090E-02
    30 0.65838922601496E-02
    31 0.24843722525555E-04
    32 0.41989298945553E-04
    33 0.63117973412402E-04
    34 -.14493354208544E+00
    35 0.89018086839600E-02
    36 0.25864507734065E+00
    37 0.46895211240417E-01
    38 -.29002757461892E-02
    39 -.83702743155654E-01
    40 0.10103546889987E-02
    41 -.18698763963050E-03
    42 -.82336704936820E-03
    43 0.16532730310083E-02
    44 -.77998360457390E-03
    45 -.30337885588355E-02
    46 0.20966152743591E+00
    47 0.86449691025831E-01
    48 -.64381851479176E-02
    49 -.60546306426637E-02
    50 0.65944617746081E-02
    51 -.94167643895648E-04
    52 -.60200194505183E-04
    53 0.47606418379849E-02
    54 -.29346596586070E-03
    55 -.85092138318535E-02
    56 -.20948182849840E+00
    57 -.86382315998013E-01
    58 -.20679568730837E-02
    59 0.65834644342168E-02
    60 0.85899597145977E-02
 Sym=     7a   
 Ene= -.51799910469632E+00
 Spin= Alpha
 Occup= 2.000000
     1 0.43629882765175E-01
     2 0.73703274054438E-01
     3 0.10865583794808E+00
     4 0.97212226911190E-01
     5 0.28135637944483E+00
     6 0.44564405489308E-01
     7 -.17543328588817E-01
     8 -.50741032118170E-01
     9 -.80166804788272E-02
    10 -.12794629769863E-02
    11 -.95293458000746E-02
    12 0.10808808777061E-01
    13 -.16852549116585E-02
    14 -.11318975206054E-01
    15 0.83739724275087E-04
    16 -.16233213993024E+00
    17 -.10472307861287E+00
    18 0.70730696556898E-02
    19 -.30897480147521E-02
    20 0.40779114863483E-02
    21 0.18862038026110E+00
    22 0.87386098687639E-01
    23 -.46112420971003E-02
    24 0.14823862640074E-02
    25 0.91390281186412E-02
    26 0.18883532704369E+00
    27 0.87480488322981E-01
    28 0.54272623525288E-02
    29 0.86984250280922E-03
    30 -.87721840495471E-02
    31 0.43629863874026E-01
    32 0.73703234586287E-01
    33 0.10865578920966E+00
    34 -.97110686927225E-01
    35 -.28136265520566E+00
    36 -.44745680856990E-01
    37 0.17502278293391E-01
    38 0.50743581631083E-01
    39 0.80899669234095E-02
    40 -.12838679715309E-02
    41 -.95285525334295E-02
    42 0.10812420504960E-01
    43 -.16924608051107E-02
    44 -.11315604049677E-01
    45 0.96954313124485E-04
    46 0.18862081717554E+00
    47 0.87386287613625E-01
    48 -.54202162042104E-02
    49 -.86022189017659E-03
    50 0.87672407326227E-02
    51 -.16233216525839E+00
    52 -.10472309491034E+00
    53 -.70799657122095E-02
    54 0.30901728895177E-02
    55 -.40656062724108E-02
    56 0.18883483615017E+00
    57 0.87480273362789E-01
    58 0.46114855892431E-02
    59 -.14924590423354E-02
    60 -.91470949637071E-02
 Sym=     8a   
 Ene= -.47195737091333E+00
 Spin= Alpha
 Occup= 2.000000
     1 0.87946005651179E-05
     2 0.20065605557451E-04
     3 0.14615134869472E-04
     4 -.14398717567757E+00
     5 0.89112961435915E-02
     6 0.25700438427728E+00
     7 0.68783018892026E-01
     8 -.42521376362954E-02
     9 -.12276795461193E+00
    10 -.34836795152612E-02
    11 0.62279017255601E-03
    12 0.28608893427052E-02
    13 -.57015127605314E-02
    14 0.26642130884536E-02
    15 0.10454709336413E-01
    16 -.28715721162031E-06
    17 -.27075114186065E-06
    18 0.57740266201645E-06
    19 0.16350977192423E-05
    20 0.26438798302053E-06
    21 0.23568523336525E+00
    22 0.10682329361835E+00
    23 -.18347754213521E-02
    24 0.64053907555016E-02
    25 0.80496218436652E-02
    26 -.23564739584205E+00
    27 -.10680408429160E+00
    28 -.60870910862012E-02
    29 -.59160655503384E-02
    30 0.60894866798708E-02
    31 -.87953193597737E-05
    32 -.20213800678626E-04
    33 -.14356800465937E-04
    34 0.14397383770218E+00
    35 -.89499206057760E-02
    36 -.25701049026962E+00
    37 -.68773480867831E-01
    38 0.42797373246122E-02
    39 0.12277232203954E+00
    40 -.34845467323604E-02
    41 0.62873030536707E-03
    42 0.28558164269934E-02
    43 -.56990634526902E-02
    44 0.26680300628395E-02
    45 0.10455567032554E-01
    46 -.23568481562911E+00
    47 -.10682314556753E+00
    48 0.60889676484708E-02
    49 0.59139380313430E-02
    50 -.60943640110456E-02
    51 -.26431511851444E-06
    52 -.25230419740258E-06
    53 0.56193137776273E-06
    54 0.16590778520800E-05
    55 0.25729569710919E-06
    56 0.23564778052673E+00
    57 0.10680422033542E+00
    58 0.18315370455077E-02
    59 -.64072008273789E-02
    60 -.80453683844430E-02
 Sym=     9a   
 Ene= 0.10370478334660E+00
 Spin= Alpha
 Occup= 0.000000
     1 0.57253562720471E-08
     2 0.89621251346767E-08
     3 0.38820444731667E-07
     4 0.26387065792269E+00
     5 -.11521910891936E+00
     6 0.15182908222806E+00
     7 -.60020368506008E+00
     8 0.26207886280052E+00
     9 -.34535216785466E+00
    10 0.12045241154297E-03
    11 -.14938527249568E-03
    12 0.28932860952718E-04
    13 0.16715469084582E-03
    14 0.69045975996720E-04
    15 0.10097977902597E-03
    16 -.20177641733595E-07
    17 -.40353812539200E-07
    18 0.55634149585626E-02
    19 0.16110511562031E-01
    20 0.25569341871536E-02
    21 0.63977536604637E-08
    22 0.16802555559812E-06
    23 -.89829553593111E-02
    24 0.39224075056170E-02
    25 -.51687221783514E-02
    26 -.18343533314360E-07
    27 -.17440854639347E-06
    28 -.89843609058071E-02
    29 0.39230199652111E-02
    30 -.51695298943375E-02
    31 0.69218862619402E-08
    32 0.11576370040881E-07
    33 0.49912279688727E-07
    34 -.26387067355652E+00
    35 0.11521911430402E+00
    36 -.15182908128675E+00
    37 0.60020375044735E+00
    38 -.26207888590638E+00
    39 0.34535217798309E+00
    40 0.11592694017492E-03
    41 -.14950800249774E-03
    42 0.33581062322826E-04
    43 0.16845743112730E-03
    44 0.72206763199864E-04
    45 0.99037331908930E-04
    46 -.23905925322339E-07
    47 -.18943052090397E-06
    48 0.89829627789432E-02
    49 -.39224094732386E-02
    50 0.51687249032366E-02
    51 -.54783305215935E-08
    52 0.47162370584201E-08
    53 -.55634138144037E-02
    54 -.16110511681977E-01
    55 -.25569343430882E-02
    56 0.91438555509518E-08
    57 0.17631367837913E-06
    58 0.89843551785969E-02
    59 -.39230185111686E-02
    60 0.51695272028071E-02
 Sym=    10a   
 Ene= 0.18691540585341E+00
 Spin= Alpha
 Occup= 0.000000
     1 -.41555798700237E-01
     2 -.19907763452331E+00
     3 0.19687564065411E+00
     4 0.54815815374029E-01
     5 0.15876518992271E+00
     6 0.25215835143230E-01
     7 -.31270478637311E+00
     8 -.90589242707762E+00
     9 -.14399411736695E+00
    10 0.83650267393377E-02
    11 -.56551484417543E-02
    12 -.27098782975834E-02
    13 -.86438175927438E-02
    14 0.11022004901312E-01
    15 -.49399922997601E-02
    16 0.11129278638748E+00
    17 0.13335804891963E+01
    18 0.61757288379532E-02
    19 -.26959927686940E-02
    20 0.35494294224112E-02
    21 -.63600100777061E-01
    22 -.60584659967918E+00
    23 -.21077585911977E-02
    24 -.57800275365672E-02
    25 -.72312871726008E-03
    26 -.63646884511073E-01
    27 -.60589621675648E+00
    28 -.18874056251234E-02
    29 -.57906475258667E-02
    30 -.11141730481788E-02
    31 -.41555811123094E-01
    32 -.19907766777647E+00
    33 0.19687567353869E+00
    34 -.54835924526167E-01
    35 -.15876394993959E+00
    36 -.25179952378963E-01
    37 0.31294982999310E+00
    38 0.90587730206120E+00
    39 0.14355681327356E+00
    40 0.83674765136282E-02
    41 -.56555877982028E-02
    42 -.27118887154255E-02
    43 -.86398073042513E-02
    44 0.11020128739719E-01
    45 -.49473452410206E-02
    46 -.63600052093947E-01
    47 -.60584650587302E+00
    48 0.18889280711526E-02
    49 0.57935916864809E-02
    50 0.11137608015089E-02
    51 0.11129279190171E+00
    52 0.13335805131706E+01
    53 -.61723024255522E-02
    54 0.26957776589565E-02
    55 -.35555464056178E-02
    56 -.63646918350548E-01
    57 -.60589633334100E+00
    58 0.21072268974244E-02
    59 0.57770229107031E-02
    60 0.72177339958393E-03
 Sym=    11a   
 Ene= 0.25836551452451E+00
 Spin= Alpha
 Occup= 0.000000
     1 -.12477508666050E-03
     2 -.72545754665159E-03
     3 -.31014831179127E-03
     4 0.89671579095994E-01
     5 -.54705543199582E-02
     6 -.15999365661851E+00
     7 -.64669533769672E+00
     8 0.40376398035011E-01
     9 0.11546152284162E+01
    10 -.77243675630690E-02
    11 0.13732470423012E-02
    12 0.63511205207677E-02
    13 -.12658427750682E-01
    14 0.59143356321051E-02
    15 0.23194087142729E-01
    16 -.25084723438165E-04
    17 0.72109117866009E-04
    18 -.97669296410687E-02
    19 0.60140475539779E-03
    20 0.17460647978308E-01
    21 0.92219764866906E-01
    22 0.14410165346786E+01
    23 -.44526614978647E-02
    24 -.63128800582608E-02
    25 0.29478910175371E-02
    26 -.92260263751950E-01
    27 -.14398406686058E+01
    28 0.64627309847528E-05
    29 0.66042823203927E-02
    30 0.50006716402419E-02
    31 -.12711420635296E-03
    32 -.73143062267805E-03
    33 -.36675027043616E-03
    34 0.89609153385275E-01
    35 -.56513078919217E-02
    36 -.16002235241542E+00
    37 -.64687218265996E+00
    38 0.39864110024793E-01
    39 0.11545339800084E+01
    40 0.77374499287741E-02
    41 -.14039863155292E-02
    42 -.63334636132449E-02
    43 0.12638568442212E-01
    44 -.59173835379257E-02
    45 -.23203223040841E-01
    46 0.92219983434496E-01
    47 0.14410267439833E+01
    48 0.27351007272267E-05
    49 0.65889582689091E-02
    50 0.49955221426020E-02
    51 -.18454340991403E-04
    52 0.13559867443211E-03
    53 -.97889871790988E-02
    54 0.61103606017104E-03
    55 0.17447955617953E-01
    56 -.92260044496861E-01
    57 -.14398305087444E+01
    58 -.44594506805111E-02
    59 -.63280135665040E-02
    60 0.29482067088606E-02
 Sym=    12a   
 Ene= 0.26210596249970E+00
 Spin= Alpha
 Occup= 0.000000
     1 -.47784758450329E-07
     2 -.12985974095270E-06
     3 -.97273172649701E-06
     4 0.60295050671888E-01
     5 -.26328322099638E-01
     6 0.34696566255182E-01
     7 0.13353514147894E+01
     8 -.58307750453798E+00
     9 0.76832527709832E+00
    10 -.68519699802945E-02
    11 0.86723008322595E-02
    12 -.18203308519649E-02
    13 -.97391707837319E-02
    14 -.41028025944902E-02
    15 -.58007290695042E-02
    16 -.20906496862835E+00
    17 -.21103121918780E+01
    18 0.16738493456150E-01
    19 -.73083601407350E-02
    20 0.96280639228773E-02
    21 -.13666653347170E-05
    22 -.22877992090761E-04
    23 0.19077028476234E-02
    24 -.83287657999114E-03
    25 0.10975874464952E-02
    26 0.13926271445752E-05
    27 0.23356591212692E-04
    28 0.19001956299820E-02
    29 -.82981910305681E-03
    30 0.10932774488954E-02
    31 0.43688496343426E-07
    32 0.10022314950994E-06
    33 0.10264161295680E-05
    34 0.60295056202162E-01
    35 -.26328322483138E-01
    36 0.34696576767075E-01
    37 0.13353512647090E+01
    38 -.58307751215745E+00
    39 0.76832519037269E+00
    40 0.68646800235275E-02
    41 -.86719577199725E-02
    42 0.18072776964450E-02
    43 0.97355120751644E-02
    44 0.40939274018556E-02
    45 0.58061868805671E-02
    46 -.13944005998875E-05
    47 -.23331343947205E-04
    48 0.19076562341616E-02
    49 -.83307783253103E-03
    50 0.10975700499762E-02
    51 0.20906496324098E+00
    52 0.21103121189897E+01
    53 0.16736157565494E-01
    54 -.73082128537370E-02
    55 0.96322338473211E-02
    56 0.13663779729221E-05
    57 0.22891437617301E-04
    58 0.19002414378637E-02
    59 -.82961876721041E-03
    60 0.10932945406795E-02
 Sym=    13a   
 Ene= 0.27655749411143E+00
 Spin= Alpha
 Occup= 0.000000
     1 0.12074651088385E+00
     2 0.36447163888271E+00
     3 0.33334087008809E+01
     4 -.38204250914084E-01
     5 -.11071988069528E+00
     6 -.17625466744369E-01
     7 0.80237985352724E+00
     8 0.23242407978300E+01
     9 0.36931388214117E+00
    10 0.46802767980882E-02
    11 -.73496593354538E-02
    12 0.26693825373655E-02
    13 -.60480635187432E-02
    14 0.22886136516519E-02
    15 -.30337192273986E-02
    16 -.36101132358284E-07
    17 -.57650833734897E-06
    18 -.48793186695042E-02
    19 -.14129723522601E-01
    20 -.22426799391304E-02
    21 0.39895213577036E-01
    22 -.34951959315189E-01
    23 0.18988146647165E-02
    24 0.86756592954682E-02
    25 0.32836948677762E-02
    26 0.39861712670931E-01
    27 -.35461309402583E-01
    28 0.40449523291632E-02
    29 0.85460615574639E-02
    30 -.54452373421207E-03
    31 -.12074651473368E+00
    32 -.36447163975434E+00
    33 -.33334087588422E+01
    34 -.38265203831220E-01
    35 -.11071608640557E+00
    36 -.17516652911741E-01
    37 0.80287205590643E+00
    38 0.23242102213615E+01
    39 0.36843526075786E+00
    40 -.46807682976318E-02
    41 0.73497483314982E-02
    42 -.26689800338664E-02
    43 0.60472605867034E-02
    44 -.22882381566690E-02
    45 0.30351934182642E-02
    46 -.39896105963141E-01
    47 0.34929691272451E-01
    48 0.40470637257736E-02
    49 0.85423424110138E-02
    50 -.55101582410886E-03
    51 0.55032124172212E-07
    52 0.49840610315301E-06
    53 -.48793173747602E-02
    54 -.14129723793785E-01
    55 -.22426789758599E-02
    56 -.39860811117059E-01
    57 0.35483706063354E-01
    58 0.19033529381227E-02
    59 0.86789665868201E-02
    60 0.32783174914261E-02
 Sym=    14a   
 Ene= 0.29319669490865E+00
 Spin= Alpha
 Occup= 0.000000
     1 -.16182874378286E+00
     2 -.10054356716445E+01
     3 -.77389687557744E+00
     4 0.87181513510528E-02
     5 0.25530541783994E-01
     6 0.42227889579418E-02
     7 0.17573117812327E+00
     8 0.50732445197288E+00
     9 0.79583798377324E-01
    10 0.93769271358900E-02
    11 -.14135172983128E-01
    12 0.47582458472380E-02
    13 -.11925922895650E-01
    14 0.51110690544763E-02
    15 -.60599296902978E-02
    16 -.57496548142246E-01
    17 0.55526525846696E+00
    18 0.15904096764580E-01
    19 -.69417364439188E-02
    20 0.91335714400183E-02
    21 -.40170621250141E-01
    22 0.78673231103686E+00
    23 0.52899992224223E-02
    24 0.11758780644295E-01
    25 -.27029963238203E-03
    26 -.40059156128214E-01
    27 0.78929985057540E+00
    28 0.28779162821795E-02
    29 0.11892823469649E-01
    30 0.40234889644176E-02
    31 -.16182865061500E+00
    32 -.10054355903230E+01
    33 -.77389226036652E+00
    34 -.89108516029564E-02
    35 -.25518607911664E-01
    36 -.38788543157814E-02
    37 -.17467011466084E+00
    38 -.50738980704561E+00
    39 -.81477657923865E-01
    40 0.93615428207384E-02
    41 -.14132408629045E-01
    42 0.47708658083063E-02
    43 -.11951105166592E-01
    44 0.51228531422418E-02
    45 -.60137549355444E-02
    46 -.40170772406836E-01
    47 0.78671953911544E+00
    48 -.28827847638319E-02
    49 -.11908047090613E-01
    50 -.40265807945510E-02
    51 -.57496563273119E-01
    52 0.55526514517903E+00
    53 -.15889273052869E-01
    54 0.69408306512550E-02
    55 -.91600249446219E-02
    56 -.40059222335172E-01
    57 0.78930850219034E+00
    58 -.52843650165391E-02
    59 -.11743592750311E-01
    60 0.27203299137812E-03
 Sym=    15a   
 Ene= 0.29882344526964E+00
 Spin= Alpha
 Occup= 0.000000
     1 -.77432403329191E-01
     2 -.96607885192662E-01
     3 -.35648654812624E+01
     4 -.94046075638592E-02
     5 -.27163210427198E-01
     6 -.42688091869124E-02
     7 0.17062840177720E+00
     8 0.49428340653211E+00
     9 0.78554867050670E-01
    10 -.40606541876945E-02
    11 -.30833323624506E-05
    12 0.40637375200569E-02
    13 0.33977799395340E-02
    14 -.78943693563708E-02
    15 0.22233558497357E-02
    16 0.56289207794880E-07
    17 0.23003261789833E-06
    18 0.43286278225989E-02
    19 0.12534949810750E-01
    20 0.19894920214470E-02
    21 0.87138838966190E-01
    22 0.17295189371968E+01
    23 0.21245185093451E-02
    24 0.51907259050526E-02
    25 0.24680890337142E-03
    26 0.87109292595587E-01
    27 0.17296761868789E+01
    28 0.14733210945832E-02
    29 0.52322327765921E-02
    30 0.14100511098872E-02
    31 0.77432598957870E-01
    32 0.96609111558485E-01
    33 0.35648666758267E+01
    34 -.93562423890901E-02
    35 -.27166169019547E-01
    36 -.43551050482799E-02
    37 0.17074168314113E+00
    38 0.49427715560855E+00
    39 0.78353193302324E-01
    40 0.40605247673693E-02
    41 0.31221220295652E-05
    42 -.40636468893988E-02
    43 -.33979593623584E-02
    44 0.78944524964215E-02
    45 -.22229915808264E-02
    46 -.87138228509908E-01
    47 -.17295066205840E+01
    48 0.14744034736579E-02
    49 0.52311105591582E-02
    50 0.14073187232109E-02
    51 -.14830701111634E-08
    52 -.88492474098478E-06
    53 0.43286459047552E-02
    54 0.12534941388704E-01
    55 0.19895046766737E-02
    56 -.87109806820403E-01
    57 -.17296907289153E+01
    58 0.21263255869654E-02
    59 0.51916990397951E-02
    60 0.24440557817920E-03
 Sym=    16a   
 Ene= 0.37643647939702E+00
 Spin= Alpha
 Occup= 0.000000
     1 -.60107081367891E-06
     2 -.15520554654569E-03
     3 0.33031041403293E-02