
Mon Jan 29 18:44:45 PST 2018
jobex WAS CALLED AS: jobex -ri -c 200 -outfile opt.out
AN OPTIMIZATION WITH MAX. 200 CYCLES WILL BE PERFORMED
CONVERGENCY CRITERION FOR TOTAL SCF-ENERGY IS 10**(-6)
CONVERGENCY CRITERION FOR MAXIMUM NORM OF SCF-ENERGY GRADIENT IS 10**(-3)
CONVERGENCY CRITERION FOR MAXIMUM NORM OF BASIS SET GRADIENT IS 10**(-3)
PROCEDURE WILL START WITH A dscf like STEP
LOAD MODULES WILL BE TAKEN FROM DIRECTORY /modfac/apps/TURBOMOLE/7.2-official/bin/em64t-unknown-linux-gnu
DSCF  = /modfac/apps/TURBOMOLE/7.2-official/bin/em64t-unknown-linux-gnu/ridft
GRAD  = /modfac/apps/TURBOMOLE/7.2-official/bin/em64t-unknown-linux-gnu/rdgrad
STATPT = /modfac/apps/TURBOMOLE/7.2-official/bin/em64t-unknown-linux-gnu/statpt

 operating system is UNIX !

 ridft (nile) : TURBOMOLE V7.2 ( 21285 ) 30 Jun 2017 at 11:51:10
 Copyright (C) 2017 TURBOMOLE GmbH, Karlsruhe


    2018-01-29 18:44:46.282 



                                  r i d f t

                        DFT program with RI approximation 
                                for coulomb part 




                                                 
                                 References:     
                                                 
          TURBOMOLE:                             
              R. Ahlrichs, M. Baer, M. Haeser, H. Horn, and
              C. Koelmel
              Electronic structure calculations on workstation
              computers: the program system TURBOMOLE
              Chem. Phys. Lett. 162: 165 (1989)
          Density Functional:                              
              O. Treutler and R. Ahlrichs                      
              Efficient Molecular Numerical Integration Schemes
              J. Chem. Phys. 102: 346 (1995)                   
          Parallel Version:                                
              Performance of parallel TURBOMOLE for Density    
              Functional Calculations                          
              M. v. Arnim and R. Ahlrichs                      
              J. Comp. Chem. 19: 1746 (1998)                   
          RI-J Method:                                     
              Auxiliary Basis Sets to approximate Coulomb      
              Potentials                                       
              Chem. Phys. Lett. 240: 283 (1995)                
              K. Eichkorn, O. Treutler, H. Oehm, M. Haeser     
              and R. Ahlrichs                                  
              Chem. Phys. Lett. 242: 652 (1995)                
                                                           
              Auxiliary Basis Sets for Main Row Atoms and their
              Use to approximate Coulomb Potentials            
              K. Eichkorn, F. Weigend, O. Treutler and         
              R. Ahlrichs                                      
              Theo. Chem. Acc. 97: 119 (1997)                   
                                                           
              Accurate Coulomb-fitting basis sets for H to Rn 
              F. Weigend                                        
              Phys. Chem. Chem. Phys. 8: 1057 (2006)            
                                                           
          Multipole accelerated RI-J (MARI-J):             
              Fast evaluation of the Coulomb potential for     
              electron densities using multipole accelerated   
              resolution of identity approximation             
              M. Sierka, A. Hogekamp and R. Ahlrichs           
              J. Chem. Phys. 118: 9136 (2003)                  
          RI-JK Method:                                     
              A fully direct RI-HF algorithm: Implementation,
              optimised auxiliary basis sets, demonstration of
              accuracy and efficiency                         
              F. Weigend                                      
              Phys. Chem. Chem. Phys. 4: 4285 (2002)           
          Two-component HF and DFT with spin-orbit coupling:  
              Self-consistent treatment of spin-orbit         
              interactions with efficient Hartree-Fock and    
              density functional methods                      
              M. K. Armbruster, F. Weigend, C. van Wüllen and 
              W. Klopper                                      
              Phys. Chem. Chem. Phys. 10: 1748 (2008)         
          Relativistic all-electron 2c calculations           
              An efficient implementation of two-component    
              relativistic exact-decoupling methods for large 
              molecules                                       
              D. Peng, N. Middendorf, F. Weigend, M. Reiher   
              J. Chem. Phys. 138, 184105 (2013)               
                                         




              +--------------------------------------------------+
              |      general information about current run       |
              +--------------------------------------------------+

 
 A HF calculation using the RI-J approximation will be carried out.
 Allocatable memory for RI due to $ricore (MB):                   500


              +--------------------------------------------------+
              | Atomic coordinate, charge and isotop information |
              +--------------------------------------------------+

                    atomic coordinates            atom    charge  isotop
        -10.54924496    2.27211222   -0.24524866    b      5.000     0
         -8.49961020    3.15537021    0.87229758    h      1.000     0
        -10.07944014    0.96967517   -2.05014498    h      1.000     0
        -11.88002790    1.08137688    1.16395791    h      1.000     0
         -9.48202213    5.36258923    0.24524866    b      5.000     0
         -8.15123919    6.55334346   -1.16393902    h      1.000     0
        -11.53165688    4.47931234   -0.87231648    h      1.000     0
         -9.95184584    6.66500738    2.05014498    h      1.000     0
 
       center of nuclear mass  :  -10.01563423    3.81735003    0.00000000
       center of nuclear charge:  -10.01563472    3.81734954    0.00000000

              +--------------------------------------------------+
              |               basis set information              |
              +--------------------------------------------------+

              we will work with the 1s 3p 5d 7f 9g ... basis set
              ...i.e. with spherical basis functions...

   type   atoms  prim   cont   basis
   ---------------------------------------------------------------------------
    b        2     24     14   def2-SVP   [3s2p1d|7s4p1d]
    h        6      7      5   def2-SVP   [2s1p|4s1p]
   ---------------------------------------------------------------------------
   total:    8     90     58
   ---------------------------------------------------------------------------

   total number of primitive shells          :   17
   total number of contracted shells         :   30
   total number of cartesian basis functions :   60
   total number of SCF-basis functions       :   58


 integral neglect threshold       :  0.56E-10
 integral storage threshold THIZE :  0.10E-04
 integral storage threshold THIME :         5

 RI-J AUXILIARY BASIS SET information:

              we will work with the 1s 3p 5d 7f 9g ... basis set
              ...i.e. with spherical basis functions...

   type   atoms  prim   cont   basis
   ---------------------------------------------------------------------------
    b        2     70     49   def2-SVP   [6s4p3d1f1g|12s5p4d2f1g]
    h        6     16     11   def2-SVP   [3s1p1d|5s2p1d]
   ---------------------------------------------------------------------------
   total:    8    236    164
   ---------------------------------------------------------------------------

   total number of primitive shells          :   32
   total number of contracted shells         :   60
   total number of cartesian basis functions :  194
   total number of SCF-basis functions       :  164


 symmetry group of the molecule :   c1 

 the group has the following generators :
   c1(z)

    1 symmetry operations found

 there are 1 real representations :   a   

 maximum number of shells which are related by symmetry :  1


    mo occupation :
   irrep   mo's   occupied
    a       58        8
 
 number of basis functions   :                     58
 number of occupied orbitals :                      8
 

 biggest AO integral is expected to be     2.904162095
  
           ------------------------
               RI-J - INFORMATION
           ------------------------
 Contributions to RI integral batches: 
  neglected integral batches:                     0
  direct contribution:                            0
  memory contribution:                   465
 Memory core needed for (P|Q) and Cholesky      1 MByte
 Memory core minimum needed except of (P|Q)     1 MByte
 Total minimum memory core needed (sum)         1 MByte
  
 ****************************************
 Memory allocated for RI-J     3 MByte
 ****************************************
                                            

          ------------------------
          nuclear repulsion energy  :   31.8140782259    
          ------------------------

 
  >>> data block $dft is missing ! <<<
  >>>   default values are used    <<<
 
  _________________________________
 |                                 |
 |         DFTD3 V3.1 Rev 0        |
 | S.Grimme, University Bonn       |
 |            June  2014           |
 |   see standalone version        |
 |       dftd3 -h for options      |
 |_________________________________|
 
 Please cite DFT-D3 work done with this code as:
 S. Grimme, J. Antony, S. Ehrlich and H. Krieg,
 J. Chem. Phys, 132 (2010), 154104.
 If used with BJ-damping cite also
 S. Grimme, S. Ehrlich and L. Goerigk,
 J. Comput. Chem. 32 (2011), 1456-1465
 For DFT-D2 the reference is
 S. Grimme, J. Comput. Chem., 27 (2006), 1787-1799
 
C6 coefficients used:
                     2  C6 for element                      1
Z=  1 CN= 0.912     C6(AA)=    3.03
Z=  1 CN= 0.000     C6(AA)=    7.59
                     5  C6 for element                      5
Z=  5 CN= 0.000     C6(AA)=  107.18
Z=  5 CN= 0.971     C6(AA)=   75.37
Z=  5 CN= 1.944     C6(AA)=   53.11
Z=  5 CN= 2.913     C6(AA)=   31.44
Z=  5 CN= 4.586     C6(AA)=   28.03

#           XYZ [au]              R0(AA) [Ang.]  CN          C6(AA)     C8(AA)   C10(AA) [au]
  1 -10.54924   2.27211  -0.24525   b   1.608  4.538        28.0      1117.0     54520.8
  2  -8.49961   3.15537   0.87230   h   1.091  1.666         3.0        36.6       541.9
  3 -10.07944   0.96968  -2.05014   h   1.091  0.966         3.1        37.6       556.4
  4 -11.88003   1.08138   1.16396   h   1.091  0.966         3.1        37.6       556.4
  5  -9.48202   5.36259   0.24525   b   1.608  4.538        28.0      1117.0     54520.8
  6  -8.15124   6.55334  -1.16394   h   1.091  0.966         3.1        37.6       556.4
  7 -11.53166   4.47931  -0.87232   h   1.091  1.666         3.0        36.6       541.9
  8  -9.95185   6.66501   2.05014   h   1.091  0.966         3.1        37.6       556.4

molecular C6(AA) [au] =       446.06

           DFT-D V3
 DF hf                                                
 parameters
 s6       :    1.0000
 s8       :    1.7460
 rs6      :    1.1580
 rs18     :    1.0000
 alpha6   :   14.0000
 alpha8   :   16.0000
 k1-k3    :   16.0000    1.3333   -4.0000
 
 Edisp /kcal,au:    -1.4614 -0.00232885

 E6    /kcal :    -0.2224
 E8    /kcal :    -1.2390
 % E8        : 84.78
 nuclear repulsion energy                  =      31.814078226
 empirical dispersive energy correction    =      -0.002328850
 nuclear repulsion + dispersion correction =      31.811749376


         -----------------
         -S,T+V- integrals
         -----------------

 1e-integrals will be neglected if expon. factor < 0.556994E-11
 
   Difference densities algorithm switched on.
   The maximal number of linear combinations of
   difference densities is                    20 .

 DIIS switched on: error vector is FDS-SDF
 Max. Iterations for DIIS is     :   5
 DIIS matrix (see manual) 
    Scaling factor of diagonals  :  1.200
    threshold for scaling factor :  0.000

 scf convergence criterion : increment of total energy < .1000000D-06
                  and increment of one-electron energy < .1000000D-03

  MOs are in ASCII format !


 automatic virtual orbital shift switched on 
      shift if e(lumo)-e(homo) < 0.10000000    


 reading orbital data $scfmo  from file mos
 orbital characterization : expanded
 mo provided and orthogonalized by Cholesky decomposition

 DSCF restart information will be dumped onto file mos


 Starting SCF iterations


 ITERATION  ENERGY          1e-ENERGY        2e-ENERGY     NORM[dD(SAO)]  TOL
   1  -52.320122577813    -127.26942691     43.137554955    0.000D+00 0.556D-10
                            exK = -9.32038530672     Coul =  52.4579402620    
                            current damping = 0.300
 
          max. resid. norm for Fia-block=  2.622D-01 for orbital      7a         
          max. resid. fock norm         =  1.029D+00 for orbital     44a         

 ITERATION  ENERGY          1e-ENERGY        2e-ENERGY     NORM[dD(SAO)]  TOL
   2  -52.713840657481    -130.28983514     45.764245110    0.532D+00 0.350D-10
                            current damping = 0.250
 
          Norm of current diis error: 0.67851    
          max. resid. norm for Fia-block=  1.034D-01 for orbital      3a         
          max. resid. fock norm         =  1.622D-01 for orbital     23a         

 ITERATION  ENERGY          1e-ENERGY        2e-ENERGY     NORM[dD(SAO)]  TOL
   3  -52.766465983929    -131.15116734     46.572951976    0.176D+00 0.274D-10
                            current damping = 0.150
 
          Norm of current diis error: 0.20621    
          max. resid. norm for Fia-block=  3.355D-02 for orbital      3a         
          max. resid. fock norm         =  4.013D-02 for orbital     24a         

 ITERATION  ENERGY          1e-ENERGY        2e-ENERGY     NORM[dD(SAO)]  TOL
   4  -52.772444638551    -131.38417082     46.799976809    0.311D-01 0.237D-10
                            current damping = 0.100
 
          Norm of current diis error: 0.49467E-01
          max. resid. norm for Fia-block=  7.460D-03 for orbital      3a         
          max. resid. fock norm         =  7.554D-03 for orbital      3a         

 ITERATION  ENERGY          1e-ENERGY        2e-ENERGY     NORM[dD(SAO)]  TOL
   5  -52.772819560015    -131.43022525     46.845656312    0.397D-02 0.217D-10
                            current damping = 0.100
 
          Norm of current diis error: 0.97063E-02
          max. resid. norm for Fia-block=  1.731D-03 for orbital      5a         
          max. resid. fock norm         =  1.731D-03 for orbital      5a         
          mo-orthogonalization: Cholesky decomposition

 ITERATION  ENERGY          1e-ENERGY        2e-ENERGY     NORM[dD(SAO)]  TOL
   6  -52.772834319602    -131.43652681     46.851943117    0.571D-03 0.205D-10
                            current damping = 0.100
 
          Norm of current diis error: 0.17952E-02
          max. resid. norm for Fia-block=  3.496D-04 for orbital      5a         
          max. resid. fock norm         =  3.496D-04 for orbital      5a         

 ITERATION  ENERGY          1e-ENERGY        2e-ENERGY     NORM[dD(SAO)]  TOL
   7  -52.772834863955    -131.43700128     46.852417037    0.918D-04 0.195D-10
                            current damping = 0.100
 
          Norm of current diis error: 0.33696E-03
          max. resid. norm for Fia-block=  6.707D-05 for orbital      5a         
          max. resid. fock norm         =  6.707D-05 for orbital      5a         

 ENERGY CONVERGED !


 ITERATION  ENERGY          1e-ENERGY        2e-ENERGY     NORM[dD(SAO)]  TOL
   8  -52.772834886744    -131.43700893     46.852424663    0.176D-04 0.188D-10
                            current damping = 0.100
 
          Norm of current diis error: 0.66102E-04
          max. resid. norm for Fia-block=  1.359D-05 for orbital      7a         
          max. resid. fock norm         =  1.359D-05 for orbital      7a         

 End of SCF iterations

   convergence criteria satisfied after    8 iterations


                  ------------------------------------------ 
                 |  total energy      =    -52.77283488674  |
                  ------------------------------------------ 
                 :  kinetic energy    =     52.33905926411  :
                 :  potential energy  =   -105.11189415085  :
                 :  virial theorem    =      1.99178032365  :
                 :  wavefunction norm =      1.00000000000  :
                  .......................................... 


 <geterg> : there is no data group $energy 


 <skperg> : $end is missing 


 orbitals $scfmo  will be written to file mos

    irrep                  4a          5a          6a          7a          8a   
 eigenvalues H         -0.64158    -0.56730    -0.54315    -0.51581    -0.45028
            eV         -17.4585    -15.4373    -14.7799    -14.0359    -12.2528
 occupation              2.0000      2.0000      2.0000      2.0000      2.0000 

    irrep                  9a         10a         11a         12a         13a   
 eigenvalues H          0.10468     0.18884     0.23394     0.26096     0.27423
            eV           2.8486      5.1388      6.3659      7.1010      7.4621
 
 
 
 
 ==============================================================================
                           electrostatic moments
 ==============================================================================

 reference point for electrostatic moments:    0.00000   0.00000   0.00000

 
              nuc           elec       ->  total
 ------------------------------------------------------------------------------
                          charge      
 ------------------------------------------------------------------------------
          16.000000     -16.000000      -0.000000
 
 ------------------------------------------------------------------------------
                       dipole moment  
 ------------------------------------------------------------------------------
   x    -160.250156     160.250162       0.000006
   y      61.077593     -61.077581       0.000012
   z       0.000000      -0.000000      -0.000000
 
   | dipole moment | =     0.0000 a.u. =     0.0000 debye 
 
 ------------------------------------------------------------------------------
                     quadrupole moment
 ------------------------------------------------------------------------------
  xx    1619.411160   -1631.518030     -12.106869
  yy     289.098166    -302.867846     -13.769680
  zz      13.239049     -26.592004     -13.352955
  xy    -594.927167     594.050110      -0.877056
  xz      -0.124981       1.201014       1.076034
  yz       7.941962      -8.440316      -0.498353
 
     1/3  trace=     -13.076501
     anisotropy=       2.961749
 
 ==============================================================================
 


    ------------------------------------------------------------------------
         total  cpu-time :   0.68 seconds
         total wall-time :   1.62 seconds
    ------------------------------------------------------------------------

   ****  ridft : all done  ****


    2018-01-29 18:44:47.755 

fine, there is no data group "$actual step"
next step = rdgrad

OPTIMIZATION CYCLE 1
Mon Jan 29 18:44:47 PST 2018
 operating system is UNIX !

 rdgrad (nile) : TURBOMOLE V7.2 ( 21287 ) 3 Jul 2017 at 09:33:16
 Copyright (C) 2017 TURBOMOLE GmbH, Karlsruhe


    2018-01-29 18:44:48.491 



                                 r d g r a d

                          gradient for ridft program 

                        by K.Eichkorn, O.Treutler, H.Oehm, 
                             M.Haeser and R.Ahlrichs
                  (Chemical Physics Letters 242 (1995) 652-660)
                    parallel version: M.v.Arnim  &  R.Ahlrichs
                            quantum chemistry group
                             university  karlsruhe
                                   germany




                          References             
                                                 
          Density Functional:                              
              O. Treutler and R. Ahlrichs                      
              Efficient Molecular Numerical Integration Schemes
              J. chem. Phys. 102: 346 (1995)                   
          Parallel Version:                                
              Performance of parallel TURBOMOLE for Density    
              Functional Calculations                          
              M. v.Arnim and R. Ahlrichs                      
              J. comp. Chem. 19: 1746 (1998)                   
          RI-J Method:                                     
              Auxiliary Basis Sets to approximate Coulomb      
              Potentials                                       
              Chem. Phys. Lett. 240: 283 (1995)                
              K. Eichkorn, O. Treutler, H. Oehm, M. Haeser     
              and R. Ahlrichs                                  
              Chem. Phys. Lett. 242: 652 (1995)                
                                                           
              Auxiliary Basis Sets for Main Row Atoms and their
              Use to approximate Coulomb Potentials            
              K. Eichkorn, F. Weigend, O. Treutler and         
              R. Ahlrichs                                      
              Theo. Chem. Acc. 97: 119 (1997)                   
                                         



 integral neglect threshold       :  0.56E-10
 integral storage threshold THIZE :  0.10E-04
 integral storage threshold THIME :         5

 A HF gradient calculation using the RI-J approximation will be carried out.
  
  
 AUXILIARY BASIS SET information:

 symmetry group of the molecule :   c1 

 the group has the following generators :
   c1(z)

    1 symmetry operations found

 there are 1 real representations :   a   

 maximum number of shells which are related by symmetry :  1


    mo occupation :
   irrep   mo's   occupied
    a       58        8
 
 number of basis functions   :                     58
 number of occupied orbitals :                      8
 

 number of off-diagonal lagrangians expected :  0

 biggest AO integral is expected to be     2.904162095
  
           ------------------------
             RDGRAD - INFORMATION
           ------------------------
  
 Threshold for integral neglect (rithr1): 1E-10
 Threshold for integral neglect (rithr2): 1E-10
 Contributions to RI integral batches: 
  neglected integral batches:                     0
  direct contribution:                          465
     
 ****************************************
 Memory allocated for RDGRAD: 1 MiB
 ****************************************
                                            
     

 nuclear repulsion energy  :   31.8140782259    

  MOs are in ASCII format !


 reading orbital data $scfmo  from file mos
 orbital characterization : scfconv=7
  Deviation of MOs from orthonormality   7.651453786656510E-014

    ----------------------------------------
     S+T+V CONTRIBUTIONS TO ENERGY GRADIENT 
    ----------------------------------------

 1e-integral 1st. derivatives will be neglected if expon. factor < 0.111586E-12

 
  >>> data block $dft is missing ! <<<
  >>>   default values are used    <<<
 
  _________________________________
 |                                 |
 |         DFTD3 V3.1 Rev 0        |
 | S.Grimme, University Bonn       |
 |            June  2014           |
 |   see standalone version        |
 |       dftd3 -h for options      |
 |_________________________________|
 
 Please cite DFT-D3 work done with this code as:
 S. Grimme, J. Antony, S. Ehrlich and H. Krieg,
 J. Chem. Phys, 132 (2010), 154104.
 If used with BJ-damping cite also
 S. Grimme, S. Ehrlich and L. Goerigk,
 J. Comput. Chem. 32 (2011), 1456-1465
 For DFT-D2 the reference is
 S. Grimme, J. Comput. Chem., 27 (2006), 1787-1799
 
C6 coefficients used:
                     2  C6 for element                      1
Z=  1 CN= 0.912     C6(AA)=    3.03
Z=  1 CN= 0.000     C6(AA)=    7.59
                     5  C6 for element                      5
Z=  5 CN= 0.000     C6(AA)=  107.18
Z=  5 CN= 0.971     C6(AA)=   75.37
Z=  5 CN= 1.944     C6(AA)=   53.11
Z=  5 CN= 2.913     C6(AA)=   31.44
Z=  5 CN= 4.586     C6(AA)=   28.03

#           XYZ [au]              R0(AA) [Ang.]  CN          C6(AA)     C8(AA)   C10(AA) [au]
  1 -10.54924   2.27211  -0.24525   b   1.608  4.538        28.0      1117.0     54520.8
  2  -8.49961   3.15537   0.87230   h   1.091  1.666         3.0        36.6       541.9
  3 -10.07944   0.96968  -2.05014   h   1.091  0.966         3.1        37.6       556.4
  4 -11.88003   1.08138   1.16396   h   1.091  0.966         3.1        37.6       556.4
  5  -9.48202   5.36259   0.24525   b   1.608  4.538        28.0      1117.0     54520.8
  6  -8.15124   6.55334  -1.16394   h   1.091  0.966         3.1        37.6       556.4
  7 -11.53166   4.47931  -0.87232   h   1.091  1.666         3.0        36.6       541.9
  8  -9.95185   6.66501   2.05014   h   1.091  0.966         3.1        37.6       556.4

molecular C6(AA) [au] =       446.06

           DFT-D V3
 DF hf                                                
 parameters
 s6       :    1.0000
 s8       :    1.7460
 rs6      :    1.1580
 rs18     :    1.0000
 alpha6   :   14.0000
 alpha8   :   16.0000
 k1-k3    :   16.0000    1.3333   -4.0000
 
 Edisp /kcal,au:    -1.4614 -0.00232885

 E6    /kcal :    -0.2224
 E8    /kcal :    -1.2390
 % E8        : 84.78
 
 doing analytical gradient O(N^2) ...
 
 |G|=  5.841080051009815E-003

 setting up bound for integral derivative estimation

 increment for numerical differentiation : 0.00050000

 biggest AO integral is expected to be     2.904162095
 biggest cartesian 1st derivative AO integral is expected to be     4.121777420

 biggest 1-particle AO density matrix element is expected to be    2.0662325128

 setting up bound for integral derivative estimation

 increment for numerical differentiation : 0.00050000

 biggest AO integral is expected to be     2.904162095
 biggest cartesian 1st derivative AO integral is expected to be     4.121777420

 2e-integral 1st. derivatives will be neglected if expon. factor < 0.100000E-06
 outer boundary for 2e-integral derivative neglection is 0.390383E-08


          ------------------------------------------------
           cartesian gradient of the energy (hartree/bohr)
          ------------------------------------------------

  ATOM      1 b           2 h           3 h           4 h           5 b 
dE/dx  0.9712248D-02 -0.1058944D-02 -0.7771260D-02 -0.1107532D-02 -0.9710939D-02
dE/dy  0.2812282D-01  0.4610690D-03 -0.1264868D-01 -0.1306176D-01 -0.2812019D-01
dE/dz  0.4463866D-02 -0.6091992D-03  0.3906765D-02 -0.7987564D-02 -0.4462721D-02

  ATOM      6 h           7 h           8 h 
dE/dx  0.1107193D-02  0.1057868D-02  0.7771365D-02
dE/dy  0.1306187D-01 -0.4630699D-03  0.1264795D-01
dE/dz  0.7988233D-02  0.6087503D-03 -0.3908130D-02
 
 resulting FORCE  (fx,fy,fz) = (-.422D-13,0.964D-13,0.333D-13)
 resulting MOMENT (mx,my,mz) = (0.380D-07,-.599D-07,0.234D-06)


 exx =      -0.008453 eyy =       0.055990 ezz =      -0.037868
 eyz =       0.008468 exz =       0.022677 exy =       0.021708


 **********************************************************************
  |maximum component of gradient| : 0.28122819E-01  (atom  1 b )       
   gradient norm                  : 0.52498470E-01
 **********************************************************************

 <getgrd> : data group $grad  is missing 

   ***  cartesian gradients written onto <gradient>  ***


     --- calculation of the energy gradient finished ---



    ------------------------------------------------------------------------
         total  cpu-time :   2.24 seconds
         total wall-time :   3.07 seconds
    ------------------------------------------------------------------------

   ****  rdgrad : all done  ****


    2018-01-29 18:44:51.457 

fine, there is no data group "$actual step"
next step = relax

 statpt (nile) : TURBOMOLE V7.2 ( 21287 ) 3 Jul 2017 at 09:33:16
 Copyright (C) 2017 TURBOMOLE GmbH, Karlsruhe


    2018-01-29 18:44:51.937 



                           this is S T A T P T   


                     hessian and coordinate update for
                          stationary point search 

                     by barbara unterreiner, marek sierka,
                           and reinhart ahlrichs

                          quantum chemistry group
                          universitaet  karlsruhe
                                  germany




              +--------------------------------------------------+
              | Atomic coordinate, charge and isotop information |
              +--------------------------------------------------+

                    atomic coordinates            atom    charge  isotop
        -10.54924496    2.27211222   -0.24524866    b      5.000     0
         -8.49961020    3.15537021    0.87229758    h      1.000     0
        -10.07944014    0.96967517   -2.05014498    h      1.000     0
        -11.88002790    1.08137688    1.16395791    h      1.000     0
         -9.48202213    5.36258923    0.24524866    b      5.000     0
         -8.15123919    6.55334346   -1.16393902    h      1.000     0
        -11.53165688    4.47931234   -0.87231648    h      1.000     0
         -9.95184584    6.66500738    2.05014498    h      1.000     0
 
       center of nuclear mass  :  -10.01563423    3.81735003    0.00000000
       center of nuclear charge:  -10.01563472    3.81734954    0.00000000
  Keyword $statpt not found - using default options
 
        ***************  Stationary point options ******************
        ************************************************************
           Maximum allowed trust radius:           3.000000E-01
           Minimum allowed trust radius:           1.000000E-03
           Initial trust radius:                   1.500000E-01
           GDIIS used if gradient norm <           1.000000E-02
           Number of previous steps for GDIIS:       5
           Hessian update method:                  BFGS
                        *** Convergence criteria ***                
           Threshold for energy change:            1.000000E-06
           Threshold for max displacement element: 1.000000E-03
           Threshold for max gradient element :    1.000000E-03
           Threshold for RMS of displacement:      5.000000E-04
           Threshold for RMS of gradient:          5.000000E-04
        ************************************************************
 

 keyword $statp missing in file <control>

  Keyword $statpt not found - using default options
  actual coordinates :
       -10.549244958743         2.272112215875        -0.245248657526
        -8.499610200493         3.155370210386         0.872297582940
       -10.079440144847         0.969675170568        -2.050144984306
       -11.880027896044         1.081376882282         1.163957914290
        -9.482022125196         5.362589230858         0.245248657526
        -8.151239187896         6.553343461711        -1.163939017028
       -11.531656883447         4.479312339085        -0.872316480201
        -9.951845836354         6.665007378904         2.050144984306
  actual gradients :
         0.009712247524         0.028122818565         0.004463866442
        -0.001058943963         0.000461069007        -0.000609199240
        -0.007771259748        -0.012648678940         0.003906764745
        -0.001107531509        -0.013061762605        -0.007987564076
        -0.009710938885        -0.028120190408        -0.004462721103
         0.001107193370         0.013061866318         0.007988233055
         0.001057867826        -0.000463069891         0.000608750275
         0.007771365385         0.012647947955        -0.003908130098
     Number of symmetry restricted degrees of freedom:    24
     Constituted by:     3 translational degrees of freedom
                         3 rotational degrees of freedom
                      18 internal degrees of freedom


 keyword $optinfo  missing in file <control>

  *************************************************************************
   ATOM                      CARTESIAN COORDINATES
    1 b     -10.54924495874347      2.27211221587505     -0.24524865752590
    2 h      -8.49961020049305      3.15537021038580      0.87229758294001
    3 h     -10.07944014484677      0.96967517056761     -2.05014498430631
    4 h     -11.88002789604420      1.08137688228248      1.16395791428958
    5 b      -9.48202212519631      5.36258923085756      0.24524865752590
    6 h      -8.15123918789558      6.55334346171146     -1.16393901702825
    7 h     -11.53165688344673      4.47931233908549     -0.87231648020134
    8 h      -9.95184583635433      6.66500737890368      2.05014498430631
  *************************************************************************
   ATOM                      CARTESIAN GRADIENTS  
    1 b       0.00971224752379      0.02812281856484      0.00446386644199
    2 h      -0.00105894396346      0.00046106900736     -0.00060919923952
    3 h      -0.00777125974755     -0.01264867894012      0.00390676474513
    4 h      -0.00110753150937     -0.01306176260507     -0.00798756407563
    5 b      -0.00971093888466     -0.02812019040799     -0.00446272110343
    6 h       0.00110719337019      0.01306186631792      0.00798823305490
    7 h       0.00105786782633     -0.00046306989137      0.00060875027507
    8 h       0.00777136538469      0.01264794795453     -0.00390813009847
  *************************************************************************

  norm of actual CARTESIAN gradient:  5.24985E-02
  norm of actual INTERNAL  gradient:  3.69892E-02

  ENERGY =     -52.7728348867 a.u.; # of cycle =    1


 keyword $hessapprox missing in file <control>

  Using approximate Hessian in internal coordinates
  Number of zero Hessian eigenvalues:   0
  Final step radius: 1.06668E-01

  Transforming internal coordinate displacements to Cartesian space
      Iteration   1 residual norm     1.066681E-01
      Iteration   2 residual norm     1.879219E-03
      Iteration   3 residual norm     2.110094E-07
      Iteration   4 residual norm     6.622434E-15
      Transformation converged
      Residual norm:    6.622434E-15 after    4 iterations

      ****************************************************************** 
                          CONVERGENCE INFORMATION

                               Converged?     Value      Criterion
             Energy change         no      52.7728349   0.0000010
             RMS of displacement   no       0.0251419   0.0005000
             RMS of gradient       no       0.0087184   0.0005000
             MAX displacement      no       0.0738273   0.0010000
             MAX gradient          no       0.0253965   0.0010000
      ****************************************************************** 


    ------------------------------------------------------------------------
         total  cpu-time :   0.02 seconds
         total wall-time :   0.24 seconds
    ------------------------------------------------------------------------

   ****  statpt : all done  ****


    2018-01-29 18:44:52.118 

fine, there is no data group "$actual step"
next step = ridft
 operating system is UNIX !

 ridft (nile) : TURBOMOLE V7.2 ( 21285 ) 30 Jun 2017 at 11:51:10
 Copyright (C) 2017 TURBOMOLE GmbH, Karlsruhe


    2018-01-29 18:44:52.166 



                                  r i d f t

                        DFT program with RI approximation 
                                for coulomb part 




                                                 
                                 References:     
                                                 
          TURBOMOLE:                             
              R. Ahlrichs, M. Baer, M. Haeser, H. Horn, and
              C. Koelmel
              Electronic structure calculations on workstation
              computers: the program system TURBOMOLE
              Chem. Phys. Lett. 162: 165 (1989)
          Density Functional:                              
              O. Treutler and R. Ahlrichs                      
              Efficient Molecular Numerical Integration Schemes
              J. Chem. Phys. 102: 346 (1995)                   
          Parallel Version:                                
              Performance of parallel TURBOMOLE for Density    
              Functional Calculations                          
              M. v. Arnim and R. Ahlrichs                      
              J. Comp. Chem. 19: 1746 (1998)                   
          RI-J Method:                                     
              Auxiliary Basis Sets to approximate Coulomb      
              Potentials                                       
              Chem. Phys. Lett. 240: 283 (1995)                
              K. Eichkorn, O. Treutler, H. Oehm, M. Haeser     
              and R. Ahlrichs                                  
              Chem. Phys. Lett. 242: 652 (1995)                
                                                           
              Auxiliary Basis Sets for Main Row Atoms and their
              Use to approximate Coulomb Potentials            
              K. Eichkorn, F. Weigend, O. Treutler and         
              R. Ahlrichs                                      
              Theo. Chem. Acc. 97: 119 (1997)                   
                                                           
              Accurate Coulomb-fitting basis sets for H to Rn 
              F. Weigend                                        
              Phys. Chem. Chem. Phys. 8: 1057 (2006)            
                                                           
          Multipole accelerated RI-J (MARI-J):             
              Fast evaluation of the Coulomb potential for     
              electron densities using multipole accelerated   
              resolution of identity approximation             
              M. Sierka, A. Hogekamp and R. Ahlrichs           
              J. Chem. Phys. 118: 9136 (2003)                  
          RI-JK Method:                                     
              A fully direct RI-HF algorithm: Implementation,
              optimised auxiliary basis sets, demonstration of
              accuracy and efficiency                         
              F. Weigend                                      
              Phys. Chem. Chem. Phys. 4: 4285 (2002)           
          Two-component HF and DFT with spin-orbit coupling:  
              Self-consistent treatment of spin-orbit         
              interactions with efficient Hartree-Fock and    
              density functional methods                      
              M. K. Armbruster, F. Weigend, C. van Wüllen and 
              W. Klopper                                      
              Phys. Chem. Chem. Phys. 10: 1748 (2008)         
          Relativistic all-electron 2c calculations           
              An efficient implementation of two-component    
              relativistic exact-decoupling methods for large 
              molecules                                       
              D. Peng, N. Middendorf, F. Weigend, M. Reiher   
              J. Chem. Phys. 138, 184105 (2013)               
                                         




              +--------------------------------------------------+
              |      general information about current run       |
              +--------------------------------------------------+

 
 A HF calculation using the RI-J approximation will be carried out.
 Allocatable memory for RI due to $ricore (MB):                   500


              +--------------------------------------------------+
              | Atomic coordinate, charge and isotop information |
              +--------------------------------------------------+

                    atomic coordinates            atom    charge  isotop
        -10.55204381    2.26400667   -0.24653783    b      5.000     0
         -8.50952176    3.15969646    0.86662446    h      1.000     0
        -10.04875509    1.01239768   -2.07104973    h      1.000     0
        -11.88053455    1.12600787    1.19870651    h      1.000     0
         -9.47922255    5.37069208    0.24653255    b      5.000     0
         -8.15073106    6.50868411   -1.19871497    h      1.000     0
        -11.52176891    4.47499335   -0.86659697    h      1.000     0
         -9.98250951    6.62230865    2.07103597    h      1.000     0
 
       center of nuclear mass  :  -10.01563397    3.81734908   -0.00000187
       center of nuclear charge:  -10.01563454    3.81734887   -0.00000132

              +--------------------------------------------------+
              |               basis set information              |
              +--------------------------------------------------+

              we will work with the 1s 3p 5d 7f 9g ... basis set
              ...i.e. with spherical basis functions...

   type   atoms  prim   cont   basis
   ---------------------------------------------------------------------------
    b        2     24     14   def2-SVP   [3s2p1d|7s4p1d]
    h        6      7      5   def2-SVP   [2s1p|4s1p]
   ---------------------------------------------------------------------------
   total:    8     90     58
   ---------------------------------------------------------------------------

   total number of primitive shells          :   17
   total number of contracted shells         :   30
   total number of cartesian basis functions :   60
   total number of SCF-basis functions       :   58


 integral neglect threshold       :  0.56E-10
 integral storage threshold THIZE :  0.10E-04
 integral storage threshold THIME :         5

 RI-J AUXILIARY BASIS SET information:

              we will work with the 1s 3p 5d 7f 9g ... basis set
              ...i.e. with spherical basis functions...

   type   atoms  prim   cont   basis
   ---------------------------------------------------------------------------
    b        2     70     49   def2-SVP   [6s4p3d1f1g|12s5p4d2f1g]
    h        6     16     11   def2-SVP   [3s1p1d|5s2p1d]
   ---------------------------------------------------------------------------
   total:    8    236    164
   ---------------------------------------------------------------------------

   total number of primitive shells          :   32
   total number of contracted shells         :   60
   total number of cartesian basis functions :  194
   total number of SCF-basis functions       :  164


 symmetry group of the molecule :   c1 

 the group has the following generators :
   c1(z)

    1 symmetry operations found

 there are 1 real representations :   a   

 maximum number of shells which are related by symmetry :  1


    mo occupation :
   irrep   mo's   occupied
    a       58        8
 
 number of basis functions   :                     58
 number of occupied orbitals :                      8
 

 biggest AO integral is expected to be     2.904162095
  
           ------------------------
               RI-J - INFORMATION
           ------------------------
 Contributions to RI integral batches: 
  neglected integral batches:                     0
  direct contribution:                            0
  memory contribution:                   465
 Memory core needed for (P|Q) and Cholesky      1 MByte
 Memory core minimum needed except of (P|Q)     1 MByte
 Total minimum memory core needed (sum)         1 MByte
  
 ****************************************
 Memory allocated for RI-J     3 MByte
 ****************************************
                                            

          ------------------------
          nuclear repulsion energy  :   31.8392867814    
          ------------------------

 
  >>> data block $dft is missing ! <<<
  >>>   default values are used    <<<
 
  _________________________________
 |                                 |
 |         DFTD3 V3.1 Rev 0        |
 | S.Grimme, University Bonn       |
 |            June  2014           |
 |   see standalone version        |
 |       dftd3 -h for options      |
 |_________________________________|
 
 Please cite DFT-D3 work done with this code as:
 S. Grimme, J. Antony, S. Ehrlich and H. Krieg,
 J. Chem. Phys, 132 (2010), 154104.
 If used with BJ-damping cite also
 S. Grimme, S. Ehrlich and L. Goerigk,
 J. Comput. Chem. 32 (2011), 1456-1465
 For DFT-D2 the reference is
 S. Grimme, J. Comput. Chem., 27 (2006), 1787-1799
 
C6 coefficients used:
                     2  C6 for element                      1
Z=  1 CN= 0.912     C6(AA)=    3.03
Z=  1 CN= 0.000     C6(AA)=    7.59
                     5  C6 for element                      5
Z=  5 CN= 0.000     C6(AA)=  107.18
Z=  5 CN= 0.971     C6(AA)=   75.37
Z=  5 CN= 1.944     C6(AA)=   53.11
Z=  5 CN= 2.913     C6(AA)=   31.44
Z=  5 CN= 4.586     C6(AA)=   28.03

#           XYZ [au]              R0(AA) [Ang.]  CN          C6(AA)     C8(AA)   C10(AA) [au]
  1 -10.55204   2.26401  -0.24654   b   1.608  4.543        28.0      1117.0     54520.7
  2  -8.50952   3.15970   0.86662   h   1.091  1.672         3.0        36.6       541.9
  3 -10.04876   1.01240  -2.07105   h   1.091  0.968         3.1        37.6       556.2
  4 -11.88053   1.12601   1.19871   h   1.091  0.968         3.1        37.6       556.2
  5  -9.47922   5.37069   0.24653   b   1.608  4.543        28.0      1117.0     54520.7
  6  -8.15073   6.50868  -1.19871   h   1.091  0.968         3.1        37.6       556.2
  7 -11.52177   4.47499  -0.86660   h   1.091  1.672         3.0        36.6       541.9
  8  -9.98251   6.62231   2.07104   h   1.091  0.968         3.1        37.6       556.2

molecular C6(AA) [au] =       446.01

           DFT-D V3
 DF hf                                                
 parameters
 s6       :    1.0000
 s8       :    1.7460
 rs6      :    1.1580
 rs18     :    1.0000
 alpha6   :   14.0000
 alpha8   :   16.0000
 k1-k3    :   16.0000    1.3333   -4.0000
 
 Edisp /kcal,au:    -1.4461 -0.00230454

 E6    /kcal :    -0.2228
 E8    /kcal :    -1.2233
 % E8        : 84.59
 nuclear repulsion energy                  =      31.839286781
 empirical dispersive energy correction    =      -0.002304540
 nuclear repulsion + dispersion correction =      31.836982242


         -----------------
         -S,T+V- integrals
         -----------------

 1e-integrals will be neglected if expon. factor < 0.556994E-11
 
   Difference densities algorithm switched on.
   The maximal number of linear combinations of
   difference densities is                    20 .

 DIIS switched on: error vector is FDS-SDF
 Max. Iterations for DIIS is     :   5
 DIIS matrix (see manual) 
    Scaling factor of diagonals  :  1.200
    threshold for scaling factor :  0.000

 scf convergence criterion : increment of total energy < .1000000D-06
                  and increment of one-electron energy < .1000000D-03

  MOs are in ASCII format !


 automatic virtual orbital shift switched on 
      shift if e(lumo)-e(homo) < 0.10000000    


 reading orbital data $scfmo  from file mos
 orbital characterization : scfconv=7

 DSCF restart information will be dumped onto file mos


 Starting SCF iterations


 ITERATION  ENERGY          1e-ENERGY        2e-ENERGY     NORM[dD(SAO)]  TOL
   1  -52.776164789254    -131.48680905     46.873662014    0.000D+00 0.556D-10
                            exK = -9.86214722715     Coul =  56.7358092414    
                            current damping = 0.300
 
          max. resid. norm for Fia-block=  3.764D-03 for orbital      8a         
          max. resid. fock norm         =  3.182D-02 for orbital     53a         

 ITERATION  ENERGY          1e-ENERGY        2e-ENERGY     NORM[dD(SAO)]  TOL
   2  -52.776251397354    -131.49214566     46.878912019    0.108D-01 0.352D-10
                            current damping = 0.250
 
          Norm of current diis error: 0.91212E-02
          max. resid. norm for Fia-block=  1.773D-03 for orbital      4a         
          max. resid. fock norm         =  7.090D-03 for orbital     53a         

 ITERATION  ENERGY          1e-ENERGY        2e-ENERGY     NORM[dD(SAO)]  TOL
   3  -52.776269954998    -131.49395228     46.880700084    0.197D-02 0.265D-10
                            current damping = 0.100
 
          Norm of current diis error: 0.29244E-02
          max. resid. norm for Fia-block=  6.316D-04 for orbital      4a         
          max. resid. fock norm         =  1.435D-03 for orbital     53a         

 ITERATION  ENERGY          1e-ENERGY        2e-ENERGY     NORM[dD(SAO)]  TOL
   4  -52.776272143378    -131.49474419     46.881489802    0.165D-03 0.227D-10
                            current damping = 0.100
 
          Norm of current diis error: 0.57363E-03
          max. resid. norm for Fia-block=  1.217D-04 for orbital      6a         
          max. resid. fock norm         =  1.406D-04 for orbital     53a         

 ITERATION  ENERGY          1e-ENERGY        2e-ENERGY     NORM[dD(SAO)]  TOL
   5  -52.776272233079    -131.49485771     46.881603240    0.411D-04 0.210D-10
                            current damping = 0.100
 
          Norm of current diis error: 0.11857E-03
          max. resid. norm for Fia-block=  2.947D-05 for orbital      6a         
          max. resid. fock norm         =  2.965D-05 for orbital      6a         
          mo-orthogonalization: Cholesky decomposition

 ENERGY CONVERGED !


 ITERATION  ENERGY          1e-ENERGY        2e-ENERGY     NORM[dD(SAO)]  TOL
   6  -52.776272240882    -131.49487755     46.881623063    0.973D-05 0.199D-10
                            current damping = 0.100
 
          Norm of current diis error: 0.26594E-04
          max. resid. norm for Fia-block=  7.504D-06 for orbital      6a         
          max. resid. fock norm         =  7.555D-06 for orbital      6a         

 End of SCF iterations

   convergence criteria satisfied after    6 iterations


                  ------------------------------------------ 
                 |  total energy      =    -52.77627224088  |
                  ------------------------------------------ 
                 :  kinetic energy    =     52.35718903397  :
                 :  potential energy  =   -105.13346127486  :
                 :  virial theorem    =      1.99205924956  :
                 :  wavefunction norm =      1.00000000000  :
                  .......................................... 


 orbitals $scfmo  will be written to file mos

    irrep                  4a          5a          6a          7a          8a   
 eigenvalues H         -0.63962    -0.56472    -0.53798    -0.52144    -0.45616
            eV         -17.4049    -15.3670    -14.6393    -14.1892    -12.4127
 occupation              2.0000      2.0000      2.0000      2.0000      2.0000 

    irrep                  9a         10a         11a         12a         13a   
 eigenvalues H          0.10456     0.19016     0.23968     0.26053     0.27593
            eV           2.8451      5.1745      6.5220      7.0893      7.5085
 
 
 
 
 ==============================================================================
                           electrostatic moments
 ==============================================================================

 reference point for electrostatic moments:    0.00000   0.00000   0.00000

 
              nuc           elec       ->  total
 ------------------------------------------------------------------------------
                          charge      
 ------------------------------------------------------------------------------
          16.000000     -16.000000      -0.000000
 
 ------------------------------------------------------------------------------
                       dipole moment  
 ------------------------------------------------------------------------------
   x    -160.250153     160.250154       0.000001
   y      61.077582     -61.077576       0.000006
   z      -0.000021       0.000025       0.000004
 
   | dipole moment | =     0.0000 a.u. =     0.0000 debye 
 
 ------------------------------------------------------------------------------
                     quadrupole moment
 ------------------------------------------------------------------------------
  xx    1619.379056   -1631.481185     -12.102130
  yy     288.370329    -302.136920     -13.766591
  zz      13.562076     -26.836843     -13.274767
  xy    -595.155465     594.289441      -0.866024
  xz      -0.400660       1.415771       1.015111
  yz       7.855700      -8.344073      -0.488373
 
     1/3  trace=     -13.047829
     anisotropy=       2.872381
 
 ==============================================================================
 


    ------------------------------------------------------------------------
         total  cpu-time :   0.50 seconds
         total wall-time :   0.50 seconds
    ------------------------------------------------------------------------

   ****  ridft : all done  ****


    2018-01-29 18:44:52.659 

fine, there is no data group "$actual step"
next step = rdgrad
 energy change  : actual value =   -52.77     threshold =   0.1000E-05
 geom. gradient : actual value =   0.2540E-01 threshold =   0.1000E-02

OPTIMIZATION CYCLE 2
Mon Jan 29 18:44:52 PST 2018
 operating system is UNIX !

 rdgrad (nile) : TURBOMOLE V7.2 ( 21287 ) 3 Jul 2017 at 09:33:16
 Copyright (C) 2017 TURBOMOLE GmbH, Karlsruhe


    2018-01-29 18:44:52.715 



                                 r d g r a d

                          gradient for ridft program 

                        by K.Eichkorn, O.Treutler, H.Oehm, 
                             M.Haeser and R.Ahlrichs
                  (Chemical Physics Letters 242 (1995) 652-660)
                    parallel version: M.v.Arnim  &  R.Ahlrichs
                            quantum chemistry group
                             university  karlsruhe
                                   germany




                          References             
                                                 
          Density Functional:                              
              O. Treutler and R. Ahlrichs                      
              Efficient Molecular Numerical Integration Schemes
              J. chem. Phys. 102: 346 (1995)                   
          Parallel Version:                                
              Performance of parallel TURBOMOLE for Density    
              Functional Calculations                          
              M. v.Arnim and R. Ahlrichs                      
              J. comp. Chem. 19: 1746 (1998)                   
          RI-J Method:                                     
              Auxiliary Basis Sets to approximate Coulomb      
              Potentials                                       
              Chem. Phys. Lett. 240: 283 (1995)                
              K. Eichkorn, O. Treutler, H. Oehm, M. Haeser     
              and R. Ahlrichs                                  
              Chem. Phys. Lett. 242: 652 (1995)                
                                                           
              Auxiliary Basis Sets for Main Row Atoms and their
              Use to approximate Coulomb Potentials            
              K. Eichkorn, F. Weigend, O. Treutler and         
              R. Ahlrichs                                      
              Theo. Chem. Acc. 97: 119 (1997)                   
                                         



 integral neglect threshold       :  0.56E-10
 integral storage threshold THIZE :  0.10E-04
 integral storage threshold THIME :         5

 A HF gradient calculation using the RI-J approximation will be carried out.
  
  
 AUXILIARY BASIS SET information:

 symmetry group of the molecule :   c1 

 the group has the following generators :
   c1(z)

    1 symmetry operations found

 there are 1 real representations :   a   

 maximum number of shells which are related by symmetry :  1


    mo occupation :
   irrep   mo's   occupied
    a       58        8
 
 number of basis functions   :                     58
 number of occupied orbitals :                      8
 

 number of off-diagonal lagrangians expected :  0

 biggest AO integral is expected to be     2.904162095
  
           ------------------------
             RDGRAD - INFORMATION
           ------------------------
  
 Threshold for integral neglect (rithr1): 1E-10
 Threshold for integral neglect (rithr2): 1E-10
 Contributions to RI integral batches: 
  neglected integral batches:                     0
  direct contribution:                          465
     
 ****************************************
 Memory allocated for RDGRAD: 1 MiB
 ****************************************
                                            
     

 nuclear repulsion energy  :   31.8392867814    

  MOs are in ASCII format !


 reading orbital data $scfmo  from file mos
 orbital characterization : scfconv=7
  Deviation of MOs from orthonormality   8.133843916856632E-014

    ----------------------------------------
     S+T+V CONTRIBUTIONS TO ENERGY GRADIENT 
    ----------------------------------------

 1e-integral 1st. derivatives will be neglected if expon. factor < 0.111586E-12

 
  >>> data block $dft is missing ! <<<
  >>>   default values are used    <<<
 
  _________________________________
 |                                 |
 |         DFTD3 V3.1 Rev 0        |
 | S.Grimme, University Bonn       |
 |            June  2014           |
 |   see standalone version        |
 |       dftd3 -h for options      |
 |_________________________________|
 
 Please cite DFT-D3 work done with this code as:
 S. Grimme, J. Antony, S. Ehrlich and H. Krieg,
 J. Chem. Phys, 132 (2010), 154104.
 If used with BJ-damping cite also
 S. Grimme, S. Ehrlich and L. Goerigk,
 J. Comput. Chem. 32 (2011), 1456-1465
 For DFT-D2 the reference is
 S. Grimme, J. Comput. Chem., 27 (2006), 1787-1799
 
C6 coefficients used:
                     2  C6 for element                      1
Z=  1 CN= 0.912     C6(AA)=    3.03
Z=  1 CN= 0.000     C6(AA)=    7.59
                     5  C6 for element                      5
Z=  5 CN= 0.000     C6(AA)=  107.18
Z=  5 CN= 0.971     C6(AA)=   75.37
Z=  5 CN= 1.944     C6(AA)=   53.11
Z=  5 CN= 2.913     C6(AA)=   31.44
Z=  5 CN= 4.586     C6(AA)=   28.03

#           XYZ [au]              R0(AA) [Ang.]  CN          C6(AA)     C8(AA)   C10(AA) [au]
  1 -10.55204   2.26401  -0.24654   b   1.608  4.543        28.0      1117.0     54520.7
  2  -8.50952   3.15970   0.86662   h   1.091  1.672         3.0        36.6       541.9
  3 -10.04876   1.01240  -2.07105   h   1.091  0.968         3.1        37.6       556.2
  4 -11.88053   1.12601   1.19871   h   1.091  0.968         3.1        37.6       556.2
  5  -9.47922   5.37069   0.24653   b   1.608  4.543        28.0      1117.0     54520.7
  6  -8.15073   6.50868  -1.19871   h   1.091  0.968         3.1        37.6       556.2
  7 -11.52177   4.47499  -0.86660   h   1.091  1.672         3.0        36.6       541.9
  8  -9.98251   6.62231   2.07104   h   1.091  0.968         3.1        37.6       556.2

molecular C6(AA) [au] =       446.01

           DFT-D V3
 DF hf                                                
 parameters
 s6       :    1.0000
 s8       :    1.7460
 rs6      :    1.1580
 rs18     :    1.0000
 alpha6   :   14.0000
 alpha8   :   16.0000
 k1-k3    :   16.0000    1.3333   -4.0000
 
 Edisp /kcal,au:    -1.4461 -0.00230454

 E6    /kcal :    -0.2228
 E8    /kcal :    -1.2233
 % E8        : 84.59
 
 doing analytical gradient O(N^2) ...
 
 |G|=  5.908778272917170E-003

 setting up bound for integral derivative estimation

 increment for numerical differentiation : 0.00050000

 biggest AO integral is expected to be     2.904162095
 biggest cartesian 1st derivative AO integral is expected to be     4.121777420

 biggest 1-particle AO density matrix element is expected to be    2.0667331020

 setting up bound for integral derivative estimation

 increment for numerical differentiation : 0.00050000

 biggest AO integral is expected to be     2.904162095
 biggest cartesian 1st derivative AO integral is expected to be     4.121777420

 2e-integral 1st. derivatives will be neglected if expon. factor < 0.100000E-06
 outer boundary for 2e-integral derivative neglection is 0.390193E-08


          ------------------------------------------------
           cartesian gradient of the energy (hartree/bohr)
          ------------------------------------------------

  ATOM      1 b           2 h           3 h           4 h           5 b 
dE/dx  0.7434951D-02 -0.2271892D-02 -0.5934237D-02 -0.7734474D-03 -0.7433926D-02
dE/dy  0.2152827D-01  0.9911312D-03 -0.9551892D-02 -0.9871777D-02 -0.2152699D-01
dE/dz  0.3416710D-02 -0.1306691D-02  0.3064420D-02 -0.6147305D-02 -0.3416697D-02

  ATOM      6 h           7 h           8 h 
dE/dx  0.7734242D-03  0.2270872D-02  0.5934254D-02
dE/dy  0.9872094D-02 -0.9922389D-03  0.9551397D-02
dE/dz  0.6147608D-02  0.1307156D-02 -0.3065202D-02
 
 resulting FORCE  (fx,fy,fz) = (-.676D-12,-.426D-12,-.285D-13)
 resulting MOMENT (mx,my,mz) = (0.109D-06,-.938D-07,0.214D-06)


 exx =      -0.011540 eyy =       0.038537 ezz =      -0.031383
 eyz =       0.007001 exz =       0.015123 exy =       0.017345


 **********************************************************************
  |maximum component of gradient| : 0.21528271E-01  (atom  1 b )       
   gradient norm                  : 0.40247260E-01
 **********************************************************************
   ***  cartesian gradients written onto <gradient>  ***


     --- calculation of the energy gradient finished ---



    ------------------------------------------------------------------------
         total  cpu-time :   0.37 seconds
         total wall-time :   0.37 seconds
    ------------------------------------------------------------------------

   ****  rdgrad : all done  ****


    2018-01-29 18:44:53.078 

fine, there is no data group "$actual step"
next step = relax

 statpt (nile) : TURBOMOLE V7.2 ( 21287 ) 3 Jul 2017 at 09:33:16
 Copyright (C) 2017 TURBOMOLE GmbH, Karlsruhe


    2018-01-29 18:44:53.103 



                           this is S T A T P T   


                     hessian and coordinate update for
                          stationary point search 

                     by barbara unterreiner, marek sierka,
                           and reinhart ahlrichs

                          quantum chemistry group
                          universitaet  karlsruhe
                                  germany




              +--------------------------------------------------+
              | Atomic coordinate, charge and isotop information |
              +--------------------------------------------------+

                    atomic coordinates            atom    charge  isotop
        -10.55204381    2.26400667   -0.24653783    b      5.000     0
         -8.50952176    3.15969646    0.86662446    h      1.000     0
        -10.04875509    1.01239768   -2.07104973    h      1.000     0
        -11.88053455    1.12600787    1.19870651    h      1.000     0
         -9.47922255    5.37069208    0.24653255    b      5.000     0
         -8.15073106    6.50868411   -1.19871497    h      1.000     0
        -11.52176891    4.47499335   -0.86659697    h      1.000     0
         -9.98250951    6.62230865    2.07103597    h      1.000     0
 
       center of nuclear mass  :  -10.01563397    3.81734908   -0.00000187
       center of nuclear charge:  -10.01563454    3.81734887   -0.00000132
  Keyword $statpt not found - using default options
 
        ***************  Stationary point options ******************
        ************************************************************
           Maximum allowed trust radius:           3.000000E-01
           Minimum allowed trust radius:           1.000000E-03
           Initial trust radius:                   1.500000E-01
           GDIIS used if gradient norm <           1.000000E-02
           Number of previous steps for GDIIS:       5
           Hessian update method:                  BFGS
                        *** Convergence criteria ***                
           Threshold for energy change:            1.000000E-06
           Threshold for max displacement element: 1.000000E-03
           Threshold for max gradient element :    1.000000E-03
           Threshold for RMS of displacement:      5.000000E-04
           Threshold for RMS of gradient:          5.000000E-04
        ************************************************************
 

 keyword $statp missing in file <control>

  Keyword $statpt not found - using default options
  actual coordinates :
       -10.552043806148         2.264006674809        -0.246537829218
        -8.509521755225         3.159696463580         0.866624462673
       -10.048755088078         1.012397678985        -2.071049725753
       -11.880534552274         1.126007872568         1.198706514670
        -9.479222551925         5.370692082958         0.246532551834
        -8.150731059547         6.508684112614        -1.198714972760
       -11.521768905668         4.474993350488        -0.866596966490
        -9.982509514155         6.622308653666         2.071035965045
  actual gradients :
         0.007434951405         0.021528271018         0.003416709555
        -0.002271891585         0.000991131161        -0.001306691032
        -0.005934236853        -0.009551892248         0.003064420306
        -0.000773447424        -0.009871776733        -0.006147305026
        -0.007433926403        -0.021526985881        -0.003416696665
         0.000773424222         0.009872094469         0.006147608344
         0.002270872182        -0.000992238875         0.001307156065
         0.005934254455         0.009551397089        -0.003065201547
     Number of symmetry restricted degrees of freedom:    24
     Constituted by:     3 translational degrees of freedom
                         3 rotational degrees of freedom
                      18 internal degrees of freedom

  *************************************************************************
   ATOM                      CARTESIAN COORDINATES
    1 b     -10.55204380614812      2.26400667480908     -0.24653782921795
    2 h      -8.50952175522525      3.15969646357968      0.86662446267340
    3 h     -10.04875508807823      1.01239767898549     -2.07104972575324
    4 h     -11.88053455227415      1.12600787256816      1.19870651466953
    5 b      -9.47922255192511      5.37069208295843      0.24653255183413
    6 h      -8.15073105954734      6.50868411261404     -1.19871497276045
    7 h     -11.52176890566761      4.47499335048842     -0.86659696648997
    8 h      -9.98250951415464      6.62230865366583      2.07103596504456
  *************************************************************************
   ATOM                      CARTESIAN GRADIENTS  
    1 b       0.00743495140527      0.02152827101845      0.00341670955516
    2 h      -0.00227189158470      0.00099113116089     -0.00130669103160
    3 h      -0.00593423685295     -0.00955189224847      0.00306442030575
    4 h      -0.00077344742419     -0.00987177673314     -0.00614730502568
    5 b      -0.00743392640309     -0.02152698588143     -0.00341669666537
    6 h       0.00077342422250      0.00987209446907      0.00614760834426
    7 h       0.00227087218181     -0.00099223887514      0.00130715606492
    8 h       0.00593425445467      0.00955139708935     -0.00306520154747
  *************************************************************************

  norm of actual CARTESIAN gradient:  4.02473E-02
  norm of actual INTERNAL  gradient:  2.76918E-02

  ENERGY =     -52.7762722409 a.u.; # of cycle =    2

  Approximate Hessian read from $hessapprox data section

  Hessian updated according to BFGS formula
  Number of zero Hessian eigenvalues:   0

        ***************  Trust radius update info  *****************
                Actual energy change:       -3.43735E-03
                Predicted energy change:    -1.97106E-03
                Actual step radius:          1.06668E-01
                Actual trust radius:         0.150000
                Energy change ratio:         1.743910
                New trust radius:            0.150000
        ************************************************************


  Results of the TRO shift search
  Final shift: -9.97470E-02 residual -2.67147E-14
  Final step radius: 1.50000E-01

  Transforming internal coordinate displacements to Cartesian space
      Iteration   1 residual norm     1.500000E-01
      Iteration   2 residual norm     3.544120E-03
      Iteration   3 residual norm     5.723194E-07
      Iteration   4 residual norm     5.142659E-14
      Transformation converged
      Residual norm:    5.142659E-14 after    4 iterations

      ****************************************************************** 
                          CONVERGENCE INFORMATION

                               Converged?     Value      Criterion
             Energy change         no       0.0034374   0.0000010
             RMS of displacement   no       0.0353553   0.0005000
             RMS of gradient       no       0.0065270   0.0005000
             MAX displacement      no       0.1047545   0.0010000
             MAX gradient          no       0.0192686   0.0010000
      ****************************************************************** 


    ------------------------------------------------------------------------
         total  cpu-time :   0.02 seconds
         total wall-time :   0.02 seconds
    ------------------------------------------------------------------------

   ****  statpt : all done  ****


    2018-01-29 18:44:53.113 

fine, there is no data group "$actual step"
next step = ridft
 operating system is UNIX !

 ridft (nile) : TURBOMOLE V7.2 ( 21285 ) 30 Jun 2017 at 11:51:10
 Copyright (C) 2017 TURBOMOLE GmbH, Karlsruhe


    2018-01-29 18:44:53.136 



                                  r i d f t

                        DFT program with RI approximation 
                                for coulomb part 




                                                 
                                 References:     
                                                 
          TURBOMOLE:                             
              R. Ahlrichs, M. Baer, M. Haeser, H. Horn, and
              C. Koelmel
              Electronic structure calculations on workstation
              computers: the program system TURBOMOLE
              Chem. Phys. Lett. 162: 165 (1989)
          Density Functional:                              
              O. Treutler and R. Ahlrichs                      
              Efficient Molecular Numerical Integration Schemes
              J. Chem. Phys. 102: 346 (1995)                   
          Parallel Version:                                
              Performance of parallel TURBOMOLE for Density    
              Functional Calculations                          
              M. v. Arnim and R. Ahlrichs                      
              J. Comp. Chem. 19: 1746 (1998)                   
          RI-J Method:                                     
              Auxiliary Basis Sets to approximate Coulomb      
              Potentials                                       
              Chem. Phys. Lett. 240: 283 (1995)                
              K. Eichkorn, O. Treutler, H. Oehm, M. Haeser     
              and R. Ahlrichs                                  
              Chem. Phys. Lett. 242: 652 (1995)                
                                                           
              Auxiliary Basis Sets for Main Row Atoms and their
              Use to approximate Coulomb Potentials            
              K. Eichkorn, F. Weigend, O. Treutler and         
              R. Ahlrichs                                      
              Theo. Chem. Acc. 97: 119 (1997)                   
                                                           
              Accurate Coulomb-fitting basis sets for H to Rn 
              F. Weigend                                        
              Phys. Chem. Chem. Phys. 8: 1057 (2006)            
                                                           
          Multipole accelerated RI-J (MARI-J):             
              Fast evaluation of the Coulomb potential for     
              electron densities using multipole accelerated   
              resolution of identity approximation             
              M. Sierka, A. Hogekamp and R. Ahlrichs           
              J. Chem. Phys. 118: 9136 (2003)                  
          RI-JK Method:                                     
              A fully direct RI-HF algorithm: Implementation,
              optimised auxiliary basis sets, demonstration of
              accuracy and efficiency                         
              F. Weigend                                      
              Phys. Chem. Chem. Phys. 4: 4285 (2002)           
          Two-component HF and DFT with spin-orbit coupling:  
              Self-consistent treatment of spin-orbit         
              interactions with efficient Hartree-Fock and    
              density functional methods                      
              M. K. Armbruster, F. Weigend, C. van Wüllen and 
              W. Klopper                                      
              Phys. Chem. Chem. Phys. 10: 1748 (2008)         
          Relativistic all-electron 2c calculations           
              An efficient implementation of two-component    
              relativistic exact-decoupling methods for large 
              molecules                                       
              D. Peng, N. Middendorf, F. Weigend, M. Reiher   
              J. Chem. Phys. 138, 184105 (2013)               
                                         




              +--------------------------------------------------+
              |      general information about current run       |
              +--------------------------------------------------+

 
 A HF calculation using the RI-J approximation will be carried out.
 Allocatable memory for RI due to $ricore (MB):                   500


              +--------------------------------------------------+
              | Atomic coordinate, charge and isotop information |
              +--------------------------------------------------+

                    atomic coordinates            atom    charge  isotop
        -10.55500697    2.25543134   -0.24789831    b      5.000     0
         -8.51280551    3.16113557    0.86472363    h      1.000     0
        -10.00586908    1.07493936   -2.09811850    h      1.000     0
        -11.87933353    1.19114194    1.24604620    h      1.000     0
         -9.47626239    5.37926530    0.24789446    b      5.000     0
         -8.15193551    6.44355423   -1.24604934    h      1.000     0
        -11.51847372    4.47355944   -0.86471226    h      1.000     0
        -10.02540052    6.55975970    2.09811412    h      1.000     0
 
       center of nuclear mass  :  -10.01563504    3.81734833   -0.00000137
       center of nuclear charge:  -10.01563529    3.81734834   -0.00000096

              +--------------------------------------------------+
              |               basis set information              |
              +--------------------------------------------------+

              we will work with the 1s 3p 5d 7f 9g ... basis set
              ...i.e. with spherical basis functions...

   type   atoms  prim   cont   basis
   ---------------------------------------------------------------------------
    b        2     24     14   def2-SVP   [3s2p1d|7s4p1d]
    h        6      7      5   def2-SVP   [2s1p|4s1p]
   ---------------------------------------------------------------------------
   total:    8     90     58
   ---------------------------------------------------------------------------

   total number of primitive shells          :   17
   total number of contracted shells         :   30
   total number of cartesian basis functions :   60
   total number of SCF-basis functions       :   58


 integral neglect threshold       :  0.56E-10
 integral storage threshold THIZE :  0.10E-04
 integral storage threshold THIME :         5

 RI-J AUXILIARY BASIS SET information:

              we will work with the 1s 3p 5d 7f 9g ... basis set
              ...i.e. with spherical basis functions...

   type   atoms  prim   cont   basis
   ---------------------------------------------------------------------------
    b        2     70     49   def2-SVP   [6s4p3d1f1g|12s5p4d2f1g]
    h        6     16     11   def2-SVP   [3s1p1d|5s2p1d]
   ---------------------------------------------------------------------------
   total:    8    236    164
   ---------------------------------------------------------------------------

   total number of primitive shells          :   32
   total number of contracted shells         :   60
   total number of cartesian basis functions :  194
   total number of SCF-basis functions       :  164


 symmetry group of the molecule :   c1 

 the group has the following generators :
   c1(z)

    1 symmetry operations found

 there are 1 real representations :   a   

 maximum number of shells which are related by symmetry :  1


    mo occupation :
   irrep   mo's   occupied
    a       58        8
 
 number of basis functions   :                     58
 number of occupied orbitals :                      8
 

 biggest AO integral is expected to be     2.904162095
  
           ------------------------
               RI-J - INFORMATION
           ------------------------
 Contributions to RI integral batches: 
  neglected integral batches:                     0
  direct contribution:                            0
  memory contribution:                   465
 Memory core needed for (P|Q) and Cholesky      1 MByte
 Memory core minimum needed except of (P|Q)     1 MByte
 Total minimum memory core needed (sum)         1 MByte
  
 ****************************************
 Memory allocated for RI-J     3 MByte
 ****************************************
                                            

          ------------------------
          nuclear repulsion energy  :   31.8612736671    
          ------------------------

 
  >>> data block $dft is missing ! <<<
  >>>   default values are used    <<<
 
  _________________________________
 |                                 |
 |         DFTD3 V3.1 Rev 0        |
 | S.Grimme, University Bonn       |
 |            June  2014           |
 |   see standalone version        |
 |       dftd3 -h for options      |
 |_________________________________|
 
 Please cite DFT-D3 work done with this code as:
 S. Grimme, J. Antony, S. Ehrlich and H. Krieg,
 J. Chem. Phys, 132 (2010), 154104.
 If used with BJ-damping cite also
 S. Grimme, S. Ehrlich and L. Goerigk,
 J. Comput. Chem. 32 (2011), 1456-1465
 For DFT-D2 the reference is
 S. Grimme, J. Comput. Chem., 27 (2006), 1787-1799
 
C6 coefficients used:
                     2  C6 for element                      1
Z=  1 CN= 0.912     C6(AA)=    3.03
Z=  1 CN= 0.000     C6(AA)=    7.59
[...]
                      18 internal degrees of freedom

  *************************************************************************
   ATOM                      CARTESIAN COORDINATES
    1 b     -10.56150400184970      2.23671478557986     -0.25081239881311
    2 h      -8.51059184969866      3.16021969626269      0.86568246315062
    3 h      -9.95113391812776      1.15014576590968     -2.13617065058056
    4 h     -11.88098354327285      1.26996397039426      1.30872919598233
    5 b      -9.46982787243960      5.39798568382692      0.25091965251377
    6 h      -8.15034670946152      6.36485930249315     -1.30853171035848
    7 h     -11.52042017096978      4.47446079135702     -0.86614637984286
    8 h     -10.08027916720058      6.48443689384552      2.13632982794830
  *************************************************************************
   ATOM                      CARTESIAN GRADIENTS  
    1 b      -0.00000513241099     -0.00000376368054      0.00000607026482
    2 h       0.00000589068239     -0.00000036202977     -0.00001059859010
    3 h      -0.00000153462334     -0.00000116377052      0.00000176629920
    4 h      -0.00000033446279      0.00000221170036      0.00000226443970
    5 b      -0.00000244249100      0.00000425649606      0.00000748536247
    6 h      -0.00000066954024      0.00000122387507      0.00000208673086
    7 h       0.00000595253520     -0.00000038700128     -0.00001056939347
    8 h      -0.00000172968998     -0.00000201558915      0.00000149488653
  *************************************************************************

  norm of actual CARTESIAN gradient:  2.20108E-05
  norm of actual INTERNAL  gradient:  2.96271E-05

  ENERGY =     -52.7810880743 a.u.; # of cycle =    9

  Approximate Hessian read from $hessapprox data section

  Hessian updated according to BFGS formula
  Number of zero Hessian eigenvalues:   0
  Number of structures for GDIIS interpolation:    5
  GDIIS step:     0.000872

  Transforming internal coordinate displacements to Cartesian space
      Iteration   1 residual norm     8.716085E-04
      Iteration   2 residual norm     2.782761E-07
      Iteration   3 residual norm     6.534873E-15
      Transformation converged
      Residual norm:    6.534873E-15 after    3 iterations

      ****************************************************************** 
                          CONVERGENCE INFORMATION

                               Converged?     Value      Criterion
             Energy change         yes      0.0000001   0.0000010
             RMS of displacement   yes      0.0002054   0.0005000
             RMS of gradient       yes      0.0000070   0.0005000
             MAX displacement      yes      0.0008710   0.0010000
             MAX gradient          yes      0.0000280   0.0010000
      ****************************************************************** 


    ------------------------------------------------------------------------
         total  cpu-time :   0.02 seconds
         total wall-time :   0.02 seconds
    ------------------------------------------------------------------------

   ****  statpt : all done  ****


    2018-01-29 18:45:02.324 

fine, there is no data group "$actual step"
next step = ridft
 operating system is UNIX !

 ridft (nile) : TURBOMOLE V7.2 ( 21285 ) 30 Jun 2017 at 11:51:10
 Copyright (C) 2017 TURBOMOLE GmbH, Karlsruhe


    2018-01-29 18:45:02.347 



                                  r i d f t

                        DFT program with RI approximation 
                                for coulomb part 




                                                 
                                 References:     
                                                 
          TURBOMOLE:                             
              R. Ahlrichs, M. Baer, M. Haeser, H. Horn, and
              C. Koelmel
              Electronic structure calculations on workstation
              computers: the program system TURBOMOLE
              Chem. Phys. Lett. 162: 165 (1989)
          Density Functional:                              
              O. Treutler and R. Ahlrichs                      
              Efficient Molecular Numerical Integration Schemes
              J. Chem. Phys. 102: 346 (1995)                   
          Parallel Version:                                
              Performance of parallel TURBOMOLE for Density    
              Functional Calculations                          
              M. v. Arnim and R. Ahlrichs                      
              J. Comp. Chem. 19: 1746 (1998)                   
          RI-J Method:                                     
              Auxiliary Basis Sets to approximate Coulomb      
              Potentials                                       
              Chem. Phys. Lett. 240: 283 (1995)                
              K. Eichkorn, O. Treutler, H. Oehm, M. Haeser     
              and R. Ahlrichs                                  
              Chem. Phys. Lett. 242: 652 (1995)                
                                                           
              Auxiliary Basis Sets for Main Row Atoms and their
              Use to approximate Coulomb Potentials            
              K. Eichkorn, F. Weigend, O. Treutler and         
              R. Ahlrichs                                      
              Theo. Chem. Acc. 97: 119 (1997)                   
                                                           
              Accurate Coulomb-fitting basis sets for H to Rn 
              F. Weigend                                        
              Phys. Chem. Chem. Phys. 8: 1057 (2006)            
                                                           
          Multipole accelerated RI-J (MARI-J):             
              Fast evaluation of the Coulomb potential for     
              electron densities using multipole accelerated   
              resolution of identity approximation             
              M. Sierka, A. Hogekamp and R. Ahlrichs           
              J. Chem. Phys. 118: 9136 (2003)                  
          RI-JK Method:                                     
              A fully direct RI-HF algorithm: Implementation,
              optimised auxiliary basis sets, demonstration of
              accuracy and efficiency                         
              F. Weigend                                      
              Phys. Chem. Chem. Phys. 4: 4285 (2002)           
          Two-component HF and DFT with spin-orbit coupling:  
              Self-consistent treatment of spin-orbit         
              interactions with efficient Hartree-Fock and    
              density functional methods                      
              M. K. Armbruster, F. Weigend, C. van Wüllen and 
              W. Klopper                                      
              Phys. Chem. Chem. Phys. 10: 1748 (2008)         
          Relativistic all-electron 2c calculations           
              An efficient implementation of two-component    
              relativistic exact-decoupling methods for large 
              molecules                                       
              D. Peng, N. Middendorf, F. Weigend, M. Reiher   
              J. Chem. Phys. 138, 184105 (2013)               
                                         




              +--------------------------------------------------+
              |      general information about current run       |
              +--------------------------------------------------+

 
 A HF calculation using the RI-J approximation will be carried out.
 Allocatable memory for RI due to $ricore (MB):                   500


              +--------------------------------------------------+
              | Atomic coordinate, charge and isotop information |
              +--------------------------------------------------+

                    atomic coordinates            atom    charge  isotop
        -10.56145736    2.23672179   -0.25088815    b      5.000     0
         -8.51093995    3.16023997    0.86631212    h      1.000     0
         -9.95084997    1.15051837   -2.13638137    h      1.000     0
        -11.88095921    1.26957233    1.30838967    h      1.000     0
         -9.46978783    5.39797329    0.25084068    b      5.000     0
         -8.15032651    6.36446796   -1.30886378    h      1.000     0
        -11.52077528    4.47448416   -0.86552068    h      1.000     0
        -10.07999112    6.48480902    2.13611152    h      1.000     0
 
       center of nuclear mass  :  -10.01562647    3.81734778   -0.00001682
       center of nuclear charge:  -10.01562925    3.81734795   -0.00001187

              +--------------------------------------------------+
              |               basis set information              |
              +--------------------------------------------------+

              we will work with the 1s 3p 5d 7f 9g ... basis set
              ...i.e. with spherical basis functions...

   type   atoms  prim   cont   basis
   ---------------------------------------------------------------------------
    b        2     24     14   def2-SVP   [3s2p1d|7s4p1d]
    h        6      7      5   def2-SVP   [2s1p|4s1p]
   ---------------------------------------------------------------------------
   total:    8     90     58
   ---------------------------------------------------------------------------

   total number of primitive shells          :   17
   total number of contracted shells         :   30
   total number of cartesian basis functions :   60
   total number of SCF-basis functions       :   58


 integral neglect threshold       :  0.56E-10
 integral storage threshold THIZE :  0.10E-04
 integral storage threshold THIME :         5

 RI-J AUXILIARY BASIS SET information:

              we will work with the 1s 3p 5d 7f 9g ... basis set
              ...i.e. with spherical basis functions...

   type   atoms  prim   cont   basis
   ---------------------------------------------------------------------------
    b        2     70     49   def2-SVP   [6s4p3d1f1g|12s5p4d2f1g]
    h        6     16     11   def2-SVP   [3s1p1d|5s2p1d]
   ---------------------------------------------------------------------------
   total:    8    236    164
   ---------------------------------------------------------------------------

   total number of primitive shells          :   32
   total number of contracted shells         :   60
   total number of cartesian basis functions :  194
   total number of SCF-basis functions       :  164


 symmetry group of the molecule :   c1 

 the group has the following generators :
   c1(z)

    1 symmetry operations found

 there are 1 real representations :   a   

 maximum number of shells which are related by symmetry :  1


    mo occupation :
   irrep   mo's   occupied
    a       58        8
 
 number of basis functions   :                     58
 number of occupied orbitals :                      8
 

 biggest AO integral is expected to be     2.904162095
  
           ------------------------
               RI-J - INFORMATION
           ------------------------
 Contributions to RI integral batches: 
  neglected integral batches:                     0
  direct contribution:                            0
  memory contribution:                   465
 Memory core needed for (P|Q) and Cholesky      1 MByte
 Memory core minimum needed except of (P|Q)     1 MByte
 Total minimum memory core needed (sum)         1 MByte
  
 ****************************************
 Memory allocated for RI-J     3 MByte
 ****************************************
                                            

          ------------------------
          nuclear repulsion energy  :   31.7746959152    
          ------------------------

 
  >>> data block $dft is missing ! <<<
  >>>   default values are used    <<<
 
  _________________________________
 |                                 |
 |         DFTD3 V3.1 Rev 0        |
 | S.Grimme, University Bonn       |
 |            June  2014           |
 |   see standalone version        |
 |       dftd3 -h for options      |
 |_________________________________|
 
 Please cite DFT-D3 work done with this code as:
 S. Grimme, J. Antony, S. Ehrlich and H. Krieg,
 J. Chem. Phys, 132 (2010), 154104.
 If used with BJ-damping cite also
 S. Grimme, S. Ehrlich and L. Goerigk,
 J. Comput. Chem. 32 (2011), 1456-1465
 For DFT-D2 the reference is
 S. Grimme, J. Comput. Chem., 27 (2006), 1787-1799
 
C6 coefficients used:
                     2  C6 for element                      1
Z=  1 CN= 0.912     C6(AA)=    3.03
Z=  1 CN= 0.000     C6(AA)=    7.59
                     5  C6 for element                      5
Z=  5 CN= 0.000     C6(AA)=  107.18
Z=  5 CN= 0.971     C6(AA)=   75.37
Z=  5 CN= 1.944     C6(AA)=   53.11
Z=  5 CN= 2.913     C6(AA)=   31.44
Z=  5 CN= 4.586     C6(AA)=   28.03

#           XYZ [au]              R0(AA) [Ang.]  CN          C6(AA)     C8(AA)   C10(AA) [au]
  1 -10.56146   2.23672  -0.25089   b   1.608  4.488        28.0      1117.0     54520.9
  2  -8.51094   3.16024   0.86631   h   1.091  1.635         3.0        36.6       541.9
  3  -9.95085   1.15052  -2.13638   h   1.091  0.970         3.1        37.5       556.0
  4 -11.88096   1.26957   1.30839   h   1.091  0.970         3.1        37.5       556.0
  5  -9.46979   5.39797   0.25084   b   1.608  4.488        28.0      1117.0     54520.9
  6  -8.15033   6.36447  -1.30886   h   1.091  0.970         3.1        37.5       556.0
  7 -11.52078   4.47448  -0.86552   h   1.091  1.635         3.0        36.6       541.9
  8 -10.07999   6.48481   2.13611   h   1.091  0.970         3.1        37.5       556.0

molecular C6(AA) [au] =       445.94

           DFT-D V3
 DF hf                                                
 parameters
 s6       :    1.0000
 s8       :    1.7460
 rs6      :    1.1580
 rs18     :    1.0000
 alpha6   :   14.0000
 alpha8   :   16.0000
 k1-k3    :   16.0000    1.3333   -4.0000
 
 Edisp /kcal,au:    -1.4300 -0.00227890

 E6    /kcal :    -0.2247
 E8    /kcal :    -1.2054
 % E8        : 84.29
 nuclear repulsion energy                  =      31.774695915
 empirical dispersive energy correction    =      -0.002278902
 nuclear repulsion + dispersion correction =      31.772417013


         -----------------
         -S,T+V- integrals
         -----------------

 1e-integrals will be neglected if expon. factor < 0.556994E-11
 
   Difference densities algorithm switched on.
   The maximal number of linear combinations of
   difference densities is                    20 .

 DIIS switched on: error vector is FDS-SDF
 Max. Iterations for DIIS is     :   5
 DIIS matrix (see manual) 
    Scaling factor of diagonals  :  1.200
    threshold for scaling factor :  0.000

 scf convergence criterion : increment of total energy < .1000000D-06
                  and increment of one-electron energy < .1000000D-03

  MOs are in ASCII format !


 automatic virtual orbital shift switched on 
      shift if e(lumo)-e(homo) < 0.10000000    


 reading orbital data $scfmo  from file mos
 orbital characterization : scfconv=7

 DSCF restart information will be dumped onto file mos


 Starting SCF iterations


 ITERATION  ENERGY          1e-ENERGY        2e-ENERGY     NORM[dD(SAO)]  TOL
   1  -52.781088066900    -131.40405621     46.850551131    0.000D+00 0.556D-10
                            exK = -9.86572251315     Coul =  56.7162736445    
                            current damping = 0.300
 
          max. resid. norm for Fia-block=  5.753D-05 for orbital      6a         
          max. resid. fock norm         =  2.783D-04 for orbital     42a         

 ITERATION  ENERGY          1e-ENERGY        2e-ENERGY     NORM[dD(SAO)]  TOL
   2  -52.781088077717    -131.40406637     46.850561280    0.103D-03 0.352D-10
                            current damping = 0.300
 
          Norm of current diis error: 0.10787E-03
          max. resid. norm for Fia-block=  2.667D-05 for orbital      6a         
          max. resid. fock norm         =  6.494D-05 for orbital     42a         

 ENERGY CONVERGED !


 ITERATION  ENERGY          1e-ENERGY        2e-ENERGY     NORM[dD(SAO)]  TOL
   3  -52.781088079946    -131.40407301     46.850567919    0.154D-04 0.267D-10
                            current damping = 0.150
 
          Norm of current diis error: 0.39315E-04
          max. resid. norm for Fia-block=  9.949D-06 for orbital      6a         
          max. resid. fock norm         =  1.506D-05 for orbital     42a         

 End of SCF iterations

   convergence criteria satisfied after    3 iterations


                  ------------------------------------------ 
                 |  total energy      =    -52.78108807995  |
                  ------------------------------------------ 
                 :  kinetic energy    =     52.36501628375  :
                 :  potential energy  =   -105.14610436370  :
                 :  virial theorem    =      1.99211702882  :
                 :  wavefunction norm =      1.00000000000  :
                  .......................................... 


 orbitals $scfmo  will be written to file mos

    irrep                  4a          5a          6a          7a          8a   
 eigenvalues H         -0.63251    -0.55429    -0.53738    -0.51800    -0.47196
            eV         -17.2117    -15.0832    -14.6230    -14.0956    -12.8427
 occupation              2.0000      2.0000      2.0000      2.0000      2.0000 

    irrep                  9a         10a         11a         12a         13a   
 eigenvalues H          0.10370     0.18692     0.25837     0.26211     0.27656
            eV           2.8220      5.0863      7.0305      7.1323      7.5256
 
 
 
 
 ==============================================================================
                           electrostatic moments
 ==============================================================================

 reference point for electrostatic moments:    0.00000   0.00000   0.00000

 
              nuc           elec       ->  total
 ------------------------------------------------------------------------------
                          charge      
 ------------------------------------------------------------------------------
          16.000000     -16.000000      -0.000000
 
 ------------------------------------------------------------------------------
                       dipole moment  
 ------------------------------------------------------------------------------
   x    -160.250068     160.250018      -0.000050
   y      61.077567     -61.077564       0.000003
   z      -0.000190       0.000279       0.000089
 
   | dipole moment | =     0.0001 a.u. =     0.0003 debye 
 
 ------------------------------------------------------------------------------
                     quadrupole moment
 ------------------------------------------------------------------------------
  xx    1619.481328   -1631.601815     -12.120487
  yy     286.208032    -299.998572     -13.790540
  zz      14.681058     -27.783458     -13.102400
  xy    -595.921339     595.083588      -0.837751
  xz      -1.180410       2.035932       0.855522
  yz       7.554520      -8.016699      -0.462179
 
     1/3  trace=     -13.004476
     anisotropy=       2.656209
 
 ==============================================================================
 


    ------------------------------------------------------------------------
         total  cpu-time :   0.29 seconds
         total wall-time :   0.29 seconds
    ------------------------------------------------------------------------

   ****  ridft : all done  ****


    2018-01-29 18:45:02.628 

fine, there is no data group "$actual step"
next step = rdgrad
 energy change  : actual value =  -0.9600E-07 threshold =   0.1000E-05
 geom. gradient : actual value =   0.2796E-04 threshold =   0.1000E-02

CONVERGENCY CRITERIA FULFILLED IN CYCLE 9

