
OPTIMIZATION CYCLE 880
Wed Mar  7 22:34:08 PST 2018
 hostname is c-3-343.local

 frog (c-3-343.local) : TURBOMOLE V7.1 ( ) 5 Apr 2016 at 11:29:09
 Copyright (C) 2016 TURBOMOLE GmbH, Karlsruhe


    2018-03-07 22:34:08.781 


 frog (c-3-343.local) : TURBOMOLE V7.1 ( ) 5 Apr 2016 at 11:29:09
 Copyright (C) 2016 TURBOMOLE GmbH, Karlsruhe


    2018-03-07 22:34:08.782 

 
       `--._            A b     I n i t i o           .-
            `.  M o l e c u l a r   D y n a m i c s  /
              \               .-.       .           / 
               \             /   \     / `.        /  
                `-----._    /     `._.'    `--.__.'   
                        `--'                          
 
 

Reading information from mdmaster                                                                        
 
 =========================================
 TDDFT-SURFACE HOPPING switched on
 Tapavicza, Meyer, and Furche,
 Phys. Chem. Chem. Phys. 13 (2011), 20986.
 =========================================
 
 found keyword $gap_threshold; hop is enforced if gap <  0.500000000000000     
Reading log history information from mdmaster                                                                        
Reading input data from mdlog.4                                                                         
Checking for non-default isotopic masses in control                                                                         
 
No constraints requested.
Reading status from mdmaster                                                                        
Reading actions from mdmaster                                                                        
Getting gradients from control                                                                         
 non-adiabatic coupling vector
  6.157465413726100E-002 -0.210038367819610      -0.190596438359920     
 -3.359185270196300E-002 -2.522653685527600E-002 -7.155741063873200E-002
  2.916143548612700E-002 -3.342828431631500E-002 -2.881781447460900E-002
  8.979124822872200E-004 -2.267205887357700E-003  3.613132342299000E-003
  7.059699294665500E-003 -1.900258169398700E-003 -8.072651395814799E-003
  7.508690615525000E-003  7.472464406938400E-003  8.361392917537500E-003
 -1.880654288797900E-002  0.209983187211770       0.215265165010040     
  9.321846443063600E-003  1.975402712000200E-003  1.623631590187300E-004
  1.475826497379000E-002  5.863249893875800E-003 -9.771648009741601E-003
 leap: Read last 2 entries of RUN.dat
 Old state:           0
 New state:           0
 Propagating Coefficients
 
 ==============Surface Hopping Information================
 
 Probability from           1 to           2 : -1.775833098952245E-003
 Random number   0.702821696055979     
 
 COEFF OF STATE           1 = (0.990801017819251,-4.427123512775875E-002)
 COEFF OF STATE           2 = (7.001745087870551E-002,0.107009146343290)
 
 POPULATION OF STATE           1 =  0.983646599171401     
 POPULATION OF STATE           2 =  1.635340082867162E-002
 SUM OF ALL POPULATIONS =   1.00000000000007     
 
 =========================================================
 
Scaling KE by    1.02889905959    
 
Generating $log data for last completed MD step:                                
t=   35160.0000000                                                              
-0.607285418703E-02 -0.276080875464     -0.231265917327     ti                  
 0.838101624219      -2.76429045612       1.95505037399     o                   
 -3.02124006821     -0.688166734255      -1.71561496344     o                   
 -3.55963441717     -0.643776350385E-01  -3.34337101061     h                   
-0.104288325766       3.20742925103       2.08337048598     o                   
  1.39567583562       2.79684149308       3.12191124928     h                   
  2.22962421572      0.846701909769      -1.79554004283     o                   
  1.11854803447       4.64841839915       1.19578722092     h                   
  2.25149387188      -3.81147444888       1.64649046125     h                   
  40.0000000000       0.00000000000                                             
ti       -0.164367665279E-03 -0.512307054989E-03 -0.225635909363E-03            
o        -0.186857284629E-03  0.220307765431E-04  0.247060498546E-03            
o        -0.417512053368E-03  0.110467530318E-03 -0.105497456125E-03            
h         0.826228906886E-03 -0.140998717022E-02 -0.123490605705E-02            
o         0.620607065741E-03  0.101901252406E-02  0.655015473369E-04            
h         0.210466459699E-02  0.103514527859E-02 -0.414784337150E-02            
o         0.240504192202E-03  0.575895848910E-03  0.438573562583E-03            
h        -0.454111398931E-02  0.323790941592E-03  0.651383208457E-02            
h         0.534594128127E-02 -0.302241601566E-02 -0.656726272376E-03            
 0.177664236735      -1152.05539806       0.00000000000                         
 0.372540172693E-01 -0.119628794690E-02 -0.396501957557E-01                     
 0.801287237233E-02 -0.315302217532E-03 -0.452837435963E-02                     
 0.148376657332E-01 -0.369182454755E-02  0.167728607880E-01                     
-0.523351961766E-03  0.320290888893E-02 -0.339817914444E-02                     
-0.838971216719E-01 -0.583517647441E-01  0.204991969684E-01                     
 0.215796490335E-01  0.124714864775E-01 -0.948018889839E-02                     
-0.442062231985E-01 -0.151958078240E-01  0.384067246845E-01                     
 0.638053365915E-01  0.522488707717E-01 -0.159493258901E-01                     
-0.168628441670E-01  0.108277211403E-01 -0.267251839339E-02                     
 

   Time t=   35160.0000000     a.u. (  850.450080000     fs)

   e x e c u t i n g    M D   s t e p   (leapfrog algorithm)

   Number of MD steps left:     620
 
   Time t=   35200.0000000     a.u. (  851.417600000     fs)

 
Provisional $current data:                                                      
t=   35200.0000000                                                              
-0.133302099190E-01 -0.296551236674     -0.239564796588     ti                  
 0.830187746213      -2.76339192756       1.96518122080     o                   
 -3.03875454551     -0.683545499344      -1.72075502175     o                   
 -3.52612953240     -0.123566175799      -3.38980815999     h                   
-0.748614424047E-01   3.25139093303       2.08486596079     o                   
  1.46107112462       2.82738728608       2.96425274716     h                   
  2.24166953926      0.870571386582      -1.78010409537     o                   
 0.881342566885       4.61587235813       1.47022898254     h                   
  2.48001548193      -3.94179973686       1.62254860674     h                   
  40.0000000000       0.00000000000                                             
ti       -0.184036855893E-03 -0.519101041103E-03 -0.210448502588E-03            
o        -0.200685384594E-03  0.227854850995E-04  0.256904754735E-03            
o        -0.444143769903E-03  0.117188349979E-03 -0.130345019082E-03            
h         0.849639163144E-03 -0.150094240226E-02 -0.117758413442E-02            
o         0.746226489723E-03  0.111480958548E-02  0.379232454848E-04            
h         0.165833725422E-02  0.774600544930E-03 -0.399800920712E-02            
o         0.305453329509E-03  0.605298076434E-03  0.391435027304E-03            
h        -0.601521408998E-02 -0.825324165267E-03  0.695947681215E-02            
h         0.579500305210E-02 -0.330487537469E-02 -0.607133478243E-03            
 
    50 energy records for statistics read from mdlog.4                                                                         
       Total Energy (H):
              current value   -1151.87773383    
                    average   -1151.87308545    
         standard deviation   0.482375671707E-02
                      drift  -0.456136813800E-03
        jump from last step  -0.468842525424E-02
 
     Kinetic Energy (H):
              current value   0.177664236735    
                    average   0.898785676599E-01
         standard deviation   0.445696173264E-01
                      drift  -0.955061812054E-06
 avg. quasi-temperature (K)    2702.74496753    
      number of constraints       0
 
         Pressure (GPa):
              current value    0.00000000000    
                    average    0.00000000000    
 
 
   approx integration error   0.160288878326    
 
Estimated integration error by reading last steps from mdlog.4                  
 
Generating $log data for last completed MD step:                                
t=   35160.0000000                                                              
-0.607285418703E-02 -0.276080875464     -0.231265917327     ti                  
 0.838101624219      -2.76429045612       1.95505037399     o                   
 -3.02124006821     -0.688166734255      -1.71561496344     o                   
 -3.55963441717     -0.643776350385E-01  -3.34337101061     h                   
-0.104288325766       3.20742925103       2.08337048598     o                   
  1.39567583562       2.79684149308       3.12191124928     h                   
  2.22962421572      0.846701909769      -1.79554004283     o                   
  1.11854803447       4.64841839915       1.19578722092     h                   
  2.25149387188      -3.81147444888       1.64649046125     h                   
  40.0000000000       0.00000000000                                             
ti       -0.164367665279E-03 -0.512307054989E-03 -0.225635909363E-03            
o        -0.186857284629E-03  0.220307765431E-04  0.247060498546E-03            
o        -0.417512053368E-03  0.110467530318E-03 -0.105497456125E-03            
h         0.826228906886E-03 -0.140998717022E-02 -0.123490605705E-02            
o         0.620607065741E-03  0.101901252406E-02  0.655015473369E-04            
h         0.210466459699E-02  0.103514527859E-02 -0.414784337150E-02            
o         0.240504192202E-03  0.575895848910E-03  0.438573562583E-03            
h        -0.454111398931E-02  0.323790941592E-03  0.651383208457E-02            
h         0.534594128127E-02 -0.302241601566E-02 -0.656726272376E-03            
 0.177664236735      -1152.05539806       0.00000000000                         
 0.372540172693E-01 -0.119628794690E-02 -0.396501957557E-01                     
 0.801287237233E-02 -0.315302217532E-03 -0.452837435963E-02                     
 0.148376657332E-01 -0.369182454755E-02  0.167728607880E-01                     
-0.523351961766E-03  0.320290888893E-02 -0.339817914444E-02                     
-0.838971216719E-01 -0.583517647441E-01  0.204991969684E-01                     
 0.215796490335E-01  0.124714864775E-01 -0.948018889839E-02                     
-0.442062231985E-01 -0.151958078240E-01  0.384067246845E-01                     
 0.638053365915E-01  0.522488707717E-01 -0.159493258901E-01                     
-0.168628441670E-01  0.108277211403E-01 -0.267251839339E-02                     
 
Generated $current data for new MD step:                                        
t=   35200.0000000                                                              
-0.133302099190E-01 -0.296551236674     -0.239564796588     ti                  
 0.830187746213      -2.76339192756       1.96518122080     o                   
 -3.03875454551     -0.683545499344      -1.72075502175     o                   
 -3.52612953240     -0.123566175799      -3.38980815999     h                   
-0.748614424047E-01   3.25139093303       2.08486596079     o                   
  1.46107112462       2.82738728608       2.96425274716     h                   
  2.24166953926      0.870571386582      -1.78010409537     o                   
 0.881342566885       4.61587235813       1.47022898254     h                   
  2.48001548193      -3.94179973686       1.62254860674     h                   
  40.0000000000       0.00000000000                                             
ti       -0.184036855893E-03 -0.519101041103E-03 -0.210448502588E-03            
o        -0.200685384594E-03  0.227854850995E-04  0.256904754735E-03            
o        -0.444143769903E-03  0.117188349979E-03 -0.130345019082E-03            
h         0.849639163144E-03 -0.150094240226E-02 -0.117758413442E-02            
o         0.746226489723E-03  0.111480958548E-02  0.379232454848E-04            
h         0.165833725422E-02  0.774600544930E-03 -0.399800920712E-02            
o         0.305453329509E-03  0.605298076434E-03  0.391435027304E-03            
h        -0.601521408998E-02 -0.825324165267E-03  0.695947681215E-02            
h         0.579500305210E-02 -0.330487537469E-02 -0.607133478243E-03            
 
Logging MD run data ($log) to file mdlog.4                                                                         
Writing data for next step ($current) to mdlog.4                                                                         

    2018-03-07 22:34:10.045 

         total cpu-time :   1.26 seconds
         total wall-time :   1.26 seconds

          ******************************************************



    ------------------------------------------------------------------------
         total  cpu-time :   1.26 seconds
         total wall-time :   1.27 seconds
    ------------------------------------------------------------------------

   ****  frog : all done  ****


    2018-03-07 22:34:10.045 

 operating system is UNIX !
 hostname is c-3-343.local

 ridft (c-3-343.local) : TURBOMOLE V7.1 ( ) 5 Apr 2016 at 11:29:09
 Copyright (C) 2016 TURBOMOLE GmbH, Karlsruhe


    2018-03-07 22:34:10.478 



                                  r i d f t

                        DFT program with RI approximation 
                                for coulomb part 




                                                 
                                 References:     
                                                 
          TURBOMOLE:                             
              R. Ahlrichs, M. Baer, M. Haeser, H. Horn, and
              C. Koelmel
              Electronic structure calculations on workstation
              computers: the program system TURBOMOLE
              Chem. Phys. Lett. 162: 165 (1989)
          Density Functional:                              
              O. Treutler and R. Ahlrichs                      
              Efficient Molecular Numerical Integration Schemes
              J. Chem. Phys. 102: 346 (1995)                   
          Parallel Version:                                
              Performance of parallel TURBOMOLE for Density    
              Functional Calculations                          
              M. v. Arnim and R. Ahlrichs                      
              J. Comp. Chem. 19: 1746 (1998)                   
          RI-J Method:                                     
              Auxiliary Basis Sets to approximate Coulomb      
              Potentials                                       
              Chem. Phys. Lett. 240: 283 (1995)                
              K. Eichkorn, O. Treutler, H. Oehm, M. Haeser     
              and R. Ahlrichs                                  
              Chem. Phys. Lett. 242: 652 (1995)                
                                                           
              Auxiliary Basis Sets for Main Row Atoms and their
              Use to approximate Coulomb Potentials            
              K. Eichkorn, F. Weigend, O. Treutler and         
              R. Ahlrichs                                      
              Theo. Chem. Acc. 97: 119 (1997)                   
                                                           
              Accurate Coulomb-fitting basis sets for H to Rn 
              F. Weigend                                        
              Phys. Chem. Chem. Phys. 8: 1057 (2006)            
                                                           
          Multipole accelerated RI-J (MARI-J):             
              Fast evaluation of the Coulomb potential for     
              electron densities using multipole accelerated   
              resolution of identity approximation             
              M. Sierka, A. Hogekamp and R. Ahlrichs           
              J. Chem. Phys. 118: 9136 (2003)                  
          RI-JK Method:                                     
              A fully direct RI-HF algorithm: Implementation,
              optimised auxiliary basis sets, demonstration of
              accuracy and efficiency                         
              F. Weigend                                      
              Phys. Chem. Chem. Phys. 4: 4285 (2002)           
          Two-component HF and DFT with spin-orbit coupling:  
              Self-consistent treatment of spin-orbit         
              interactions with efficient Hartree-Fock and    
              density functional methods                      
              M. K. Armbruster, F. Weigend, C. van Wüllen and 
              W. Klopper                                      
              Phys. Chem. Chem. Phys. 10: 1748 (2008)         
          Relativistic all-electron 2c calculations           
              An efficient implementation of two-component    
              relativistic exact-decoupling methods for large 
              molecules                                       
              D. Peng, N. Middendorf, F. Weigend, M. Reiher   
              J. Chem. Phys. 138, 184105 (2013)               
                                         


 


              +--------------------------------------------------+
              |      general information about current run       |
              +--------------------------------------------------+

 

 DENSITY CONVERGENCE CHECK SWITCHED ON !
 SCF CONVERGENCE IF RMS(delta[D]) <     0.1000000000E-06

 PBE0 hybrid functional
 exchange:    3/4 (LDA+PBE) + 1/4 HF
 correlation: LDA (PW) + PBE
 A Hybrid-DFT calculation using the RI-J approximation will be carried out.
 Allocatable memory for RI due to $ricore (MB):         500


              +--------------------------------------------------+
              | Atomic coordinate, charge and isotop information |
              +--------------------------------------------------+

                    atomic coordinates            atom    charge  isotop
         -0.01333021   -0.29655124   -0.23956480    ti    22.000     0
          0.83018775   -2.76339193    1.96518122    o      8.000     0
         -3.03875455   -0.68354550   -1.72075502    o      8.000     0
         -3.52612953   -0.12356618   -3.38980816    h      1.000     0
         -0.07486144    3.25139093    2.08486596    o      8.000     0
          1.46107112    2.82738729    2.96425275    h      1.000     0
          2.24166954    0.87057139   -1.78010410    o      8.000     0
          0.88134257    4.61587236    1.47022898    h      1.000     0
          2.48001548   -3.94179974    1.62254861    h      1.000     0
 
       center of nuclear mass  :   -0.00000000    0.00000004    0.00000005
       center of nuclear charge:    0.01153389    0.03886148    0.03086726

              +--------------------------------------------------+
              |               basis set information              |
              +--------------------------------------------------+

              we will work with the 1s 3p 5d 7f 9g ... basis set
              ...i.e. with spherical basis functions...

   type   atoms  prim   cont   basis
   ---------------------------------------------------------------------------
    ti       1     73     31   def2-SVP   [5s3p2d1f|14s9p5d1f]
    o        4     24     14   def2-SVP   [3s2p1d|7s4p1d]
    h        4      7      5   def2-SVP   [2s1p|4s1p]
   ---------------------------------------------------------------------------
   total:    9    197    107
   ---------------------------------------------------------------------------

   total number of primitive shells          :   46
   total number of contracted shells         :   47
   total number of cartesian basis functions :  116
   total number of SCF-basis functions       :  107


 integral neglect threshold       :  0.29E-10
 integral storage threshold THIZE :  0.10E-04
 integral storage threshold THIME :         5

 RI-J AUXILIARY BASIS SET information:

              we will work with the 1s 3p 5d 7f 9g ... basis set
              ...i.e. with spherical basis functions...

   type   atoms  prim   cont   basis
   ---------------------------------------------------------------------------
    ti       1    107     89   def2-SVP   [8s5p5d2f3g|19s5p5d3f3g]
    o        4     70     49   def2-SVP   [6s4p3d1f1g|12s5p4d2f1g]
    h        4     16     11   def2-SVP   [3s1p1d|5s2p1d]
   ---------------------------------------------------------------------------
   total:    9    451    329
   ---------------------------------------------------------------------------

   total number of primitive shells          :   67
   total number of contracted shells         :  103
   total number of cartesian basis functions :  410
   total number of SCF-basis functions       :  329


 symmetry group of the molecule :   c1 

 the group has the following generators :
   c1(z)

    1 symmetry operations found

 there are 1 real representations :   a   

 maximum number of shells which are related by symmetry :  1


    mo occupation :
   irrep   mo's   occupied
    a      107       29
 
 number of basis functions   :          107
 number of occupied orbitals :           29
 
  
           ------------------
           density functional
           ------------------
 PBE0 hybrid functional
 exchange:    3/4 (LDA+PBE) + 1/4 HF
 correlation: LDA (PW) + PBE
 iterations will be done with small grid
  
 spherical integration : Lebedev's spherical grid
 spherical gridsize    :           3
    i.e. gridpoints    :         302
 value for diffuse not defined
 radial integration    : Chebyshev 2nd kind (scaling 3)
 radial gridsize       :           3
 integration cells     :           9
 partition function    : becke
 partition sharpness   :           3
  

 biggest AO integral is expected to be    13.493451081
  
           ------------------------
               RI-J - INFORMATION
           ------------------------
 Contributions to RI integral batches: 
  neglected integral batches:          67
  direct contribution:                  0
  memory contribution:        1061
 Memory core needed for (P|Q) and Cholesky      1 MByte
 Memory core minimum needed except of (P|Q)     1 MByte
 Total minimum memory core needed (sum)         1 MByte
  
 ****************************************
 Memory allocated for RI-J    22 MByte
 ****************************************
                                            

          ------------------------
          nuclear repulsion energy  :   323.236821472    
          ------------------------

 
          -----------------
          -S,T+V- integrals
          -----------------

 1e-integrals will be neglected if expon. factor < 0.288100E-11
 
   Difference densities algorithm switched on.
   The maximal number of linear combinations of
   difference densities is          20 .

 DIIS switched on: error vector is FDS-SDF
 Max. Iterations for DIIS is     :   4
 DIIS matrix (see manual) 
    Scaling factor of diagonals  :  1.200
    threshold for scaling factor :  0.000

 scf convergence criterion : increment of total energy < .1000000D-06
                  and increment of one-electron energy < .1000000D-03

  MOs are in ASCII format !


 automatic virtual orbital shift switched on 
      shift if e(lumo)-e(homo) < 0.10000000    


 reading orbital data $scfmo  from file mos
 orbital characterization : scfconv=7

 DSCF restart information will be dumped onto file mos


 Starting SCF iterations

          Overall gridpoints after grid construction =         13502

 ITERATION  ENERGY          1e-ENERGY        2e-ENERGY     RMS[dD(SAO)]   TOL
   1  -1152.0342456337    -2226.3300197     751.05895262    0.000D+00 0.287D-10
                            Exc = -58.6321374100     Coul =  828.515026433    
                            exK = -18.8239364057    
                              N = 58.000436891    
                            current damping = 0.700
 
          max. resid. norm for Fia-block=  5.106D-02 for orbital     14a         
          max. resid. fock norm         =  1.646D-01 for orbital     83a         

 ITERATION  ENERGY          1e-ENERGY        2e-ENERGY     RMS[dD(SAO)]   TOL
   2  -1152.0476367069    -2226.4379403     751.15348213    0.204D-02 0.182D-10
                            Exc = -58.6338990011      Eck =  809.787381128    
                              N = 58.000480801    
                            current damping = 0.650
 
          Norm of current diis error: 0.10317    
          max. resid. norm for Fia-block=  2.255D-02 for orbital     14a         
          max. resid. fock norm         =  1.355D-01 for orbital     84a         

 ITERATION  ENERGY          1e-ENERGY        2e-ENERGY     RMS[dD(SAO)]   TOL
   3  -1152.0498022708    -2226.2163889     750.92976517    0.958D-03 0.143D-10
                            Exc = -58.6368384025      Eck =  809.566603569    
                              N = 58.000485308    
                            current damping = 0.600
 
          Norm of current diis error: 0.64355E-01
          max. resid. norm for Fia-block=  9.742D-03 for orbital     21a         
          max. resid. fock norm         =  2.896D-02 for orbital     84a         

 ITERATION  ENERGY          1e-ENERGY        2e-ENERGY     RMS[dD(SAO)]   TOL
   4  -1152.0504221364    -2226.4779796     751.19073601    0.503D-03 0.132D-10
                            Exc = -58.6319160376      Eck =  809.822652043    
                              N = 58.000485271    
                            current damping = 0.650
 
          Norm of current diis error: 0.36328E-01
          max. resid. norm for Fia-block=  3.353D-03 for orbital     18a         
          max. resid. fock norm         =  1.088D-02 for orbital     87a         

 ITERATION  ENERGY          1e-ENERGY        2e-ENERGY     RMS[dD(SAO)]   TOL
   5  -1152.0505899511    -2226.3076519     751.02024043    0.248D-03 0.127D-10
                            Exc = -58.6355630546      Eck =  809.655803481    
                              N = 58.000486591    
                            current damping = 0.700
 
          Norm of current diis error: 0.19574E-01
          max. resid. norm for Fia-block=  1.798D-03 for orbital     16a         
          max. resid. fock norm         =  4.532D-03 for orbital     83a         
          mo-orthogonalization: Cholesky decomposition

 ITERATION  ENERGY          1e-ENERGY        2e-ENERGY     RMS[dD(SAO)]   TOL
   6  -1152.0506456227    -2226.3524389     751.06497185    0.107D-03 0.123D-10
                            Exc = -58.6356825586      Eck =  809.700654410    
                              N = 58.000489776    
                            current damping = 0.750
 
          Norm of current diis error: 0.47807E-02
          max. resid. norm for Fia-block=  9.001D-04 for orbital     22a         
          max. resid. fock norm         =  2.080D-03 for orbital     87a         

 ITERATION  ENERGY          1e-ENERGY        2e-ENERGY     RMS[dD(SAO)]   TOL
   7  -1152.0506495978    -2226.3499395     751.06246847    0.377D-04 0.121D-10
                            Exc = -58.6346315349      Eck =  809.697100009    
                              N = 58.000487927    
                            current damping = 0.800
 
          Norm of current diis error: 0.23732E-02
          max. resid. norm for Fia-block=  3.588D-04 for orbital     18a         
          max. resid. fock norm         =  7.402D-04 for orbital     87a         

 ITERATION  ENERGY          1e-ENERGY        2e-ENERGY     RMS[dD(SAO)]   TOL
   8  -1152.0506505190    -2226.3563779     751.06890586    0.161D-04 0.117D-10
                            Exc = -58.6349091571      Eck =  809.703815017    
                              N = 58.000488446    
                            current damping = 0.850
 
          Norm of current diis error: 0.11935E-02
          max. resid. norm for Fia-block=  1.815D-04 for orbital     16a         
          max. resid. fock norm         =  3.876D-04 for orbital     83a         

 ITERATION  ENERGY          1e-ENERGY        2e-ENERGY     RMS[dD(SAO)]   TOL
   9  -1152.0506507219    -2226.3512172     751.06374505    0.950D-05 0.115D-10
                            Exc = -58.6350647504      Eck =  809.698809799    
                              N = 58.000488662    
                            current damping = 0.900
 
          Norm of current diis error: 0.87110E-03
          max. resid. norm for Fia-block=  8.880D-05 for orbital     22a         
          max. resid. fock norm         =  1.771D-04 for orbital     87a         

 ITERATION  ENERGY          1e-ENERGY        2e-ENERGY     RMS[dD(SAO)]   TOL
  10  -1152.0506508308    -2226.3543295     751.06685720    0.524D-05 0.110D-10
                            Exc = -58.6349993600      Eck =  809.701856559    
                              N = 58.000488700    
                            current damping = 0.950
 
          Norm of current diis error: 0.41031E-03
          max. resid. norm for Fia-block=  6.313D-05 for orbital     21a         
          max. resid. fock norm         =  7.909D-05 for orbital     87a         
          mo-orthogonalization: Cholesky decomposition

 ITERATION  ENERGY          1e-ENERGY        2e-ENERGY     RMS[dD(SAO)]   TOL
  11  -1152.0506508581    -2226.3535900     751.06611766    0.259D-05 0.106D-10
                            Exc = -58.6349733678      Eck =  809.701091030    
                              N = 58.000488588    
                            current damping = 1.000
 
          Norm of current diis error: 0.14907E-03
          max. resid. norm for Fia-block=  2.541D-05 for orbital     22a         
          max. resid. fock norm         =  3.706D-05 for orbital     87a         

 ITERATION  ENERGY          1e-ENERGY        2e-ENERGY     RMS[dD(SAO)]   TOL
  12  -1152.0506508628    -2226.3538728     751.06640049    0.118D-05 0.997D-11
                            Exc = -58.6349950126      Eck =  809.701395501    
                              N = 58.000488614    
                            current damping = 1.050
 
          Norm of current diis error: 0.75657E-04
          max. resid. norm for Fia-block=  1.371D-05 for orbital     22a         
          max. resid. fock norm         =  2.058D-05 for orbital     87a         

 ITERATION  ENERGY          1e-ENERGY        2e-ENERGY     RMS[dD(SAO)]   TOL
  13  -1152.0506508646    -2226.3537483     751.06627594    0.621D-06 0.953D-11
                            Exc = -58.6349898906      Eck =  809.701265826    
                              N = 58.000488614    
                            current damping = 1.100
 
          Norm of current diis error: 0.51055E-04
          max. resid. norm for Fia-block=  8.281D-06 for orbital     21a         
          max. resid. fock norm         =  1.063D-05 for orbital     87a         

 ITERATION  ENERGY          1e-ENERGY        2e-ENERGY     RMS[dD(SAO)]   TOL
  14  -1152.0506508653    -2226.3539323     751.06645998    0.413D-06 0.909D-11
                            Exc = -58.6349850290      Eck =  809.701445008    
                              N = 58.000488608    
                            current damping = 1.150
 
          Norm of current diis error: 0.34778E-04
          max. resid. norm for Fia-block=  4.140D-06 for orbital     22a         
          max. resid. fock norm         =  4.892D-06 for orbital     87a         

 ENERGY & DENSITY CONVERGED !

          Overall gridpoints after grid construction =         48570

 ITERATION  ENERGY          1e-ENERGY        2e-ENERGY     RMS[dD(SAO)]   TOL
  15  -1152.0500261576    -2226.3538160     751.06696834    0.230D-06 0.880D-11
                            Exc = -58.6343634378      Eck =  809.701331776    
                              N = 57.999979319    
                            current damping = 1.200
 
          Norm of current diis error: 0.17837E-04
          max. resid. norm for Fia-block=  2.548D-06 for orbital     22a         
          max. resid. fock norm         =  3.584D-06 for orbital     83a         

 End of SCF iterations

   convergence criteria satisfied after   15 iterations


                  ------------------------------------------ 
                 |  total energy      =  -1152.05002615759  |
                  ------------------------------------------ 
                 :  kinetic energy    =   1149.09984487953  :
                 :  potential energy  =  -2301.14987103712  :
                 :  virial theorem    =      1.99743918996  :
                 :  wavefunction norm =      1.00000000000  :
                  .......................................... 


 orbitals $scfmo  will be written to file mos

    irrep                 25a         26a         27a         28a         29a   
 eigenvalues H         -0.32627    -0.31289    -0.30509    -0.30136    -0.29620
            eV          -8.8784     -8.5143     -8.3019     -8.2004     -8.0602
 occupation              2.0000      2.0000      2.0000      2.0000      2.0000 

    irrep                 30a         31a         32a         33a         34a   
 eigenvalues H         -0.02494    -0.00783     0.01533     0.02750     0.04768
            eV          -0.6787     -0.2132      0.4173      0.7484      1.2974
 
 
 
 
 ==============================================================================
                           electrostatic moments
 ==============================================================================

 reference point for electrostatic moments:    0.00000   0.00000   0.00000

 
              nuc           elec       ->  total
 ------------------------------------------------------------------------------
                          charge      
 ------------------------------------------------------------------------------
          58.000000     -58.000000       0.000000
 
 ------------------------------------------------------------------------------
                       dipole moment  
 ------------------------------------------------------------------------------
   x       0.668965      -0.113958       0.555008
   y       2.253966      -1.221561       1.032405
   z       1.790301      -1.302499       0.487802
 
   | dipole moment | =     1.2696 a.u. =     3.2270 debye 
 
 ------------------------------------------------------------------------------
                     quadrupole moment
 ------------------------------------------------------------------------------
  xx     141.130889    -171.138000     -30.007111
  yy     202.252244    -225.336660     -23.084416
  zz     141.041413    -168.690957     -27.649544
  xy      10.875112     -12.259853      -1.384741
  xz      43.385386     -37.721887       5.663500
  yz      18.550775     -14.906474       3.644301
 
     1/3  trace=     -26.913690
     anisotropy=      13.378419
 
 ==============================================================================
 


    ------------------------------------------------------------------------
         total  cpu-time :  12.85 seconds
         total wall-time :  12.87 seconds
    ------------------------------------------------------------------------

   ****  ridft : all done  ****


    2018-03-07 22:34:23.151 

fine, there is no data group "$actual step"
next step = rdgrad
 hostname is c-3-343.local
           Doing BLAS/Lapack in the master proc. with  8 CPUs.
           SMPCPUS    set: Shared-memory Parallelization with   8 CPUs.

           SMP Parallelization Reference:
           C. van Wullen, J. Comput. Chem. 32 (2011) 1195--1201

 egrad (c-3-343.local) : TURBOMOLE V7.1 ( ) 5 Apr 2016 at 11:29:09
 Copyright (C) 2016 TURBOMOLE GmbH, Karlsruhe


    2018-03-07 22:34:23.533 




                               e g r a d

                       quantum chemistry group
                       university of karlsruhe
                               germany


             integral direct evaluation of excited state
                     and polarizability gradients
                 and first-order nonadiabatic couplings



          references (see also programs escf, dscf and ridft) 

          review 
          F. Furche and D. Rappoport,  
          "Density functional methods for excited states: 
          equilibrium structure and electronic spectra",
          ch. III of "Computational Photochemistry", ed. by 
          M. Olivucci, vol. 16 of "Theoretical and Computational 
          Chemistry", Elsevier, Amsterdam, 2005.

          RI-J method 
          D. Rappoport and F. Furche, 
          J. Chem. Phys. 122 (2005), 064105.

          Lagrangian method, implementation, benchmarks 
          F. Furche and R. Ahlrichs,
          J. Chem. Phys. 117 (2002), 7433;
          J. Chem. Phys. 121 (2004), 12772 (E).

          Polarizability derivatives, Raman intensities 
          D. Rappoport and F. Furche, 
          J. Chem. Phys. 126 (2007), 201104.

          First-order nonadiabatic couplings 
          R. Send and F. Furche, 
          J. Chem. Phys. 132 (2010), 044107.
                                     




              +--------------------------------------------------+
              | Atomic coordinate, charge and isotop information |
              +--------------------------------------------------+

                    atomic coordinates            atom    charge  isotop
         -0.01333021   -0.29655124   -0.23956480    ti    22.000     0
          0.83018775   -2.76339193    1.96518122    o      8.000     0
         -3.03875455   -0.68354550   -1.72075502    o      8.000     0
         -3.52612953   -0.12356618   -3.38980816    h      1.000     0
         -0.07486144    3.25139093    2.08486596    o      8.000     0
          1.46107112    2.82738729    2.96425275    h      1.000     0
          2.24166954    0.87057139   -1.78010410    o      8.000     0
          0.88134257    4.61587236    1.47022898    h      1.000     0
          2.48001548   -3.94179974    1.62254861    h      1.000     0
 
       center of nuclear mass  :   -0.00000000    0.00000004    0.00000005
       center of nuclear charge:    0.01153389    0.03886148    0.03086726

              +--------------------------------------------------+
              |               basis set information              |
              +--------------------------------------------------+

              we will work with the 1s 3p 5d 7f 9g ... basis set
              ...i.e. with spherical basis functions...

   type   atoms  prim   cont   basis
   ---------------------------------------------------------------------------
    ti       1     73     31   def2-SVP   [5s3p2d1f|14s9p5d1f]
    o        4     24     14   def2-SVP   [3s2p1d|7s4p1d]
    h        4      7      5   def2-SVP   [2s1p|4s1p]
   ---------------------------------------------------------------------------
   total:    9    197    107
   ---------------------------------------------------------------------------

   total number of primitive shells          :   46
   total number of contracted shells         :   47
   total number of cartesian basis functions :  116
   total number of SCF-basis functions       :  107


 residuum convergence criterium   :  0.10E-04


 integral neglect threshold       :  0.29E-10
 integral storage threshold THIZE :  0.10E-04
 integral storage threshold THIME :         5

 
             FOUND RI-J FLAG !
 
  
 AUXILIARY BASIS SET information:

              we will work with the 1s 3p 5d 7f 9g ... basis set
              ...i.e. with spherical basis functions...

   type   atoms  prim   cont   basis
   ---------------------------------------------------------------------------
    ti       1    107     89   def2-SVP   [8s5p5d2f3g|19s5p5d3f3g]
    o        4     70     49   def2-SVP   [6s4p3d1f1g|12s5p4d2f1g]
    h        4     16     11   def2-SVP   [3s1p1d|5s2p1d]
   ---------------------------------------------------------------------------
   total:    9    451    329
   ---------------------------------------------------------------------------

   total number of primitive shells          :   67
   total number of contracted shells         :  103
   total number of cartesian basis functions :  410
   total number of SCF-basis functions       :  329

 RPA SINGLET-EXCITATION-CALCULATION 
 
             FOUND DFT-FLAG !
 
 
 FOUND Nonadiabatic Coupling-FLAG !
 Note: the sign convention for NACME changed
 such that <0|d/dx|n> is now computed.

 symmetry group of the molecule :   c1 

 the group has the following generators :
   c1(z)

    1 symmetry operations found

 there are 1 real representations :   a   

 maximum number of shells which are related by symmetry :  1

 IRREP of excited state :   a   
 

 determining totally symmetric integral contributions 
    - equivalent to irreducible tensor elements - 
 which can be formed within each triple of representations :

             representation triple      contributions

              a     a     a               1

    mo occupation :
   irrep   mo's   occupied
    a      107       29
 
 number of basis functions   :          107
 number of occupied orbitals :           29
 
  
           ------------------
           density functional
           ------------------
 PBE0 hybrid functional
 exchange:    3/4 (LDA+PBE) + 1/4 HF
 correlation: LDA (PW) + PBE
 iterations will be done with small grid
  
 spherical integration : Lebedev's spherical grid
 spherical gridsize    :           3
    i.e. gridpoints    :         302
 value for diffuse not defined
 radial integration    : Chebyshev 2nd kind (scaling 3)
 radial gridsize       :           3
 integration cells     :           9
 partition function    : becke
 partition sharpness   :           3
  
 
 Derivatives of quadrature weights will be included
 
  
           ----------------------
               RI - INFORMATION
           ----------------------

 biggest AO integral is expected to be    13.493451081

 Threshold for integral neglect (rithr2):   0.29E-10
 Threshold for integral neglect (rithr1):   0.29E-10

 Contributions to RI integral batches: 
  neglected integral batches:          57
  direct contribution:                  0
  memory contribution:        1071
 Core memory available (ricore)            500 MiB
 Core memory needed for (P|Q) and Cholesky 1 MiB
 Core memory used for integrals            21 MiB
  
 ****************************************
 Memory allocated for RIDFT 22 MiB
 ****************************************
                                            
  MOs are in ASCII format !


 reading orbital data $scfmo  from file mos
 orbital characterization : scfconv=7
 preparing numerical integration ....
          Overall gridpoints after grid construction =         13502
 Ordering of quadrature gridpoints disabled.

 Calculating ground state density on molecular grid

 Integral of ground state density: N =   58.00048860567759    



 number of non-frozen orbitals          :   107
 number of non-frozen occupied orbitals :    29



                        -------------------
                         excitation vector 
                        -------------------


 dimension of super-tensorspace: 2

          IRREP   tensor space dimension   number of roots

           a              2262                   1

 maximum number of Davidson iterations set to   25


 machine precision: 2.22D-16


 logfile sing_a    exists already

 found      1 converged vectors on sing_a   
 read       1 vectors from logfile sing_a   



                       Nonorthonormal Krylov Space Iteration


 total number of roots to be determined:   1


 maximum core memory set to  1000 MB,
 corresponding to     4635 vectors in CAO basis


 maximum number of simultaneously treated vectors (including degeneracy):        1


 Iteration IRREP Converged      Max. Euclidean
                 roots          residual norm

    1       a        0        1.125423390455506D-01
 
    2       a        0        5.991983570183707D-02
 
    3       a        0        7.093155008239455D-02
 
    4       a        0        3.268102753968234D-02
 
    5       a        0        3.142105613173013D-02
 
    6       a        0        3.623488153232395D-02
 
    7       a        0        2.822211762989194D-02
 
    8       a        0        2.187211038243111D-02
 
    9       a        0        2.055966384012604D-02
 
   10       a        0        2.233406042552968D-02
 
   11       a        0        1.790358734097469D-02
 
   12       a        0        1.711788182714639D-02
 
   13       a        0        1.030855847288032D-02
 
   14       a        0        4.232332503983610D-03
 
   15       a        0        2.495574317361731D-03
 
   16       a        0        1.568193429959401D-03
 
   17       a        0        1.391500510051601D-03
 
   18       a        0        9.732877869796868D-04
 
   19       a        0        4.840993313192643D-04
 
   20       a        0        2.120688803213169D-04
 
   21       a        0        1.284913640331331D-04
 
   22       a        0        5.891432508756501D-05
 
   23       a        0        2.976476798357775D-05
 
   24       a        0        1.857692814029917D-05
 
   25       a        0        1.161500948441933D-05
 


 Warning! No convergence within  25 iterations.
 Unless you have specified a very low $escfiterlimit/$forceiterlimit, 
 this is a reason to worry!



 IRREP   Vector     Eigenvalue           Euclidean residual norm

  a         1    2.110610358614016D-01    1.161500948441933D-05
 

 Deallocation failure for file unit arrays in <egrad>


========================
 internal module stack: 
------------------------
    egrad
========================

  abnormal termination
 egrad ended abnormally
error in gradient step (1)
