[Molden Format]
[Title]
                                                                                
[Atoms] AU
 ti    1   22 -.13330209918990E-01 -.29655123667423E+00 -.23956479658751E+00
 o     2    8 0.83018774621265E+00 -.27633919275612E+01 0.19651812207995E+01
 o     3    8 -.30387545455069E+01 -.68354549934357E+00 -.17207550217548E+01
 h     4    1 -.35261295323966E+01 -.12356617579884E+00 -.33898081599863E+01
 o     5    8 -.74861442404690E-01 0.32513909330312E+01 0.20848659607949E+01
 h     6    1 0.14610711246184E+01 0.28273872860814E+01 0.29642527471554E+01
 o     7    8 0.22416695392559E+01 0.87057138658245E+00 -.17801040953655E+01
 h     8    1 0.88134256688516E+00 0.46158723581276E+01 0.14702289825396E+01
 h     9    1 0.24800154819286E+01 -.39417997368641E+01 0.16225486067393E+01
[GTO]
    1 0
 s    6 1.00
 0.42961512185000E+05 0.17843194150525E-02
 0.64509759169000E+04 0.13666998293913E-01
 0.14677210915000E+04 0.67657531418607E-01
 0.41420997355000E+03 0.23415664474124E+00
 0.13448715840000E+03 0.47131888052172E+00
 0.46122209796000E+02 0.35503505357522E+00
 s    3 1.00
 0.89447762543000E+02 -.10443687268854E+00
 0.10223346060000E+02 0.61711202546388E+00
 0.41353774271000E+01 0.45666537532827E+00
 s    3 1.00
 0.67896181452000E+01 -.21192816449190E+00
 0.11106730691000E+01 0.68918538471225E+00
 0.47565975578000E+00 0.43416009293305E+00
 s    1 1.00
 0.65986956934000E-01 0.10000000000000E+01
 s    1 1.00
 0.25210342250000E-01 0.10000000000000E+01
 p    5 1.00
 0.52203684782000E+03 0.95451019665738E-02
 0.12268649489000E+03 0.69873133119453E-01
 0.38572903611000E+02 0.26415737257776E+00
 0.13672169319000E+02 0.50888293752065E+00
 0.50118529359000E+01 0.33394126738673E+00
 p    3 1.00
 0.24131928282000E+01 0.32564830898490E+00
 0.93252270050000E+00 0.56003132938245E+00
 0.35429058390000E+00 0.23042934995196E+00
 p    1 1.00
 0.10156100000000E+00 0.10000000000000E+01
 d    4 1.00
 0.23465125957000E+02 0.32308575502655E-01
 0.63332593832000E+01 0.16797459661068E+00
 0.20766489946000E+01 0.42993853242019E+00
 0.69027361954000E+00 0.59228850253611E+00
 d    1 1.00
 0.21088738554000E+00 0.10000000000000E+01
 f    1 1.00
 0.56200000000000E+00 0.10000000000000E+01
 
    2 0
 s    5 1.00
 0.22661767785000E+04 -.53893503921743E-02
 0.34087010191000E+03 -.40234721388960E-01
 0.77363135167000E+02 -.18008184205526E+00
 0.21479644940000E+02 -.46828857657651E+00
 0.66589433124000E+01 -.44692617160187E+00
 s    1 1.00
 0.80975975668000E+00 0.10000000000000E+01
 s    1 1.00
 0.25530772234000E+00 0.10000000000000E+01
 p    3 1.00
 0.17721504317000E+02 0.62630248763161E-01
 0.38635505440000E+01 0.33331138482352E+00
 0.10480920883000E+01 0.74148638308122E+00
 p    1 1.00
 0.27641544411000E+00 0.10000000000000E+01
 d    1 1.00
 0.12000000000000E+01 0.10000000000000E+01
 
    3 0
 s    5 1.00
 0.22661767785000E+04 -.53893503921743E-02
 0.34087010191000E+03 -.40234721388960E-01
 0.77363135167000E+02 -.18008184205526E+00
 0.21479644940000E+02 -.46828857657651E+00
 0.66589433124000E+01 -.44692617160187E+00
 s    1 1.00
 0.80975975668000E+00 0.10000000000000E+01
 s    1 1.00
 0.25530772234000E+00 0.10000000000000E+01
 p    3 1.00
 0.17721504317000E+02 0.62630248763161E-01
 0.38635505440000E+01 0.33331138482352E+00
 0.10480920883000E+01 0.74148638308122E+00
 p    1 1.00
 0.27641544411000E+00 0.10000000000000E+01
 d    1 1.00
 0.12000000000000E+01 0.10000000000000E+01
 
    4 0
 s    3 1.00
 0.13010701000000E+02 0.33485484812989E-01
 0.19622572000000E+01 0.23472187088125E+00
 0.44453796000000E+00 0.81377028525955E+00
 s    1 1.00
 0.12194962000000E+00 0.10000000000000E+01
 p    1 1.00
 0.80000000000000E+00 0.10000000000000E+01
 
    5 0
 s    5 1.00
 0.22661767785000E+04 -.53893503921743E-02
 0.34087010191000E+03 -.40234721388960E-01
 0.77363135167000E+02 -.18008184205526E+00
 0.21479644940000E+02 -.46828857657651E+00
 0.66589433124000E+01 -.44692617160187E+00
 s    1 1.00
 0.80975975668000E+00 0.10000000000000E+01
 s    1 1.00
 0.25530772234000E+00 0.10000000000000E+01
 p    3 1.00
 0.17721504317000E+02 0.62630248763161E-01
 0.38635505440000E+01 0.33331138482352E+00
 0.10480920883000E+01 0.74148638308122E+00
 p    1 1.00
 0.27641544411000E+00 0.10000000000000E+01
 d    1 1.00
 0.12000000000000E+01 0.10000000000000E+01
 
    6 0
 s    3 1.00
 0.13010701000000E+02 0.33485484812989E-01
 0.19622572000000E+01 0.23472187088125E+00
 0.44453796000000E+00 0.81377028525955E+00
 s    1 1.00
 0.12194962000000E+00 0.10000000000000E+01
 p    1 1.00
 0.80000000000000E+00 0.10000000000000E+01
 
    7 0
 s    5 1.00
 0.22661767785000E+04 -.53893503921743E-02
 0.34087010191000E+03 -.40234721388960E-01
 0.77363135167000E+02 -.18008184205526E+00
 0.21479644940000E+02 -.46828857657651E+00
 0.66589433124000E+01 -.44692617160187E+00
 s    1 1.00
 0.80975975668000E+00 0.10000000000000E+01
 s    1 1.00
 0.25530772234000E+00 0.10000000000000E+01
 p    3 1.00
 0.17721504317000E+02 0.62630248763161E-01
 0.38635505440000E+01 0.33331138482352E+00
 0.10480920883000E+01 0.74148638308122E+00
 p    1 1.00
 0.27641544411000E+00 0.10000000000000E+01
 d    1 1.00
 0.12000000000000E+01 0.10000000000000E+01
 
    8 0
 s    3 1.00
 0.13010701000000E+02 0.33485484812989E-01
 0.19622572000000E+01 0.23472187088125E+00
 0.44453796000000E+00 0.81377028525955E+00
 s    1 1.00
 0.12194962000000E+00 0.10000000000000E+01
 p    1 1.00
 0.80000000000000E+00 0.10000000000000E+01
 
    9 0
 s    3 1.00
 0.13010701000000E+02 0.33485484812989E-01
 0.19622572000000E+01 0.23472187088125E+00
 0.44453796000000E+00 0.81377028525955E+00
 s    1 1.00
 0.12194962000000E+00 0.10000000000000E+01
 p    1 1.00
 0.80000000000000E+00 0.10000000000000E+01
 
[MO]
 Sym=     1a   
 Ene= -.17908314612349E+03
 Spin= Alpha
 Occup= 2.000000
     1 0.99571368999092E+00
     2 0.14123986087115E-01
     3 -.33456717452926E-02
     4 0.50184064040590E-03
     5 -.22848507709085E-03
     6 0.34731187879999E-04
     7 0.18399299689807E-04
     8 -.25912614892121E-04
     9 -.12040869495007E-03
    10 -.70909416772911E-04
    11 0.83310159866951E-04
    12 -.10513944722280E-03
    13 0.28006789223401E-03
    14 0.53066961619557E-03
    15 0.19689153705184E-05
    16 -.74791270615026E-05
    17 0.55102116909841E-05
    18 -.18462124148967E-04
    19 0.69459466193341E-05
    20 -.27911259295361E-05
    21 -.19342762439072E-03
    22 0.17224554296982E-03
    23 0.21182081420897E-04
    24 -.75359607352326E-04
    25 0.72803521626230E-04
    26 0.19614429731847E-03
    27 0.63660221561720E-05
    28 0.86796020885594E-05
    29 -.18602635356912E-04
    30 -.77509075969799E-06
    31 -.15976570312567E-04
    32 0.13572208591107E-04
    33 -.77658242127842E-05
    34 0.43316621399660E-05
    35 0.11385845740110E-04
    36 0.11936686494597E-04
    37 -.14958841880497E-04
    38 -.10123838986377E-03
    39 0.31215542779335E-04
    40 0.31746978101564E-04
    41 -.69149064792872E-04
    42 0.84682457958024E-04
    43 -.12934025057436E-03
    44 0.20484604854668E-03
    45 -.22127475609660E-03
    46 -.12387841040650E-04
    47 0.71174620104505E-05
    48 0.52703790301991E-05
    49 -.25005752795531E-05
    50 0.77206892112674E-05
    51 -.31074413606848E-04
    52 -.22516486443384E-04
    53 -.16693251847098E-03
    54 0.18044458064370E-03
    55 -.11167476788068E-03
    56 -.23959468554311E-05
    57 -.40931667935668E-04
    58 0.42048440661787E-03
    59 -.27135943240745E-04
    60 0.30608978793498E-03
    61 0.31560831067513E-04
    62 -.11128571493652E-04
    63 -.20432259573862E-04
    64 0.18289884285957E-04
    65 0.12573372548474E-04
    66 0.11681092692873E-04
    67 0.17327444178823E-03
    68 0.10563983622599E-03
    69 -.51139353420605E-04
    70 -.45178026845904E-04
    71 0.67062622878545E-04
    72 0.20281849481634E-04
    73 0.23279391072591E-03
    74 -.60730404094423E-03
    75 -.11385785821391E-04
    76 -.54331102858633E-04
    77 -.38170764940383E-04
    78 -.33401983568200E-04
    79 0.30331130073728E-03
    80 0.24140148461086E-03
    81 0.56647739234192E-05
    82 -.10461977362873E-04
    83 0.47972034394535E-05
    84 -.49589082802660E-05
    85 0.17015476052709E-05
    86 -.13817607004508E-04
    87 0.11789876267613E-03
    88 -.22379576695505E-03
    89 0.94959909868154E-05
    90 0.80059006368971E-05
    91 -.47749310293809E-06
    92 -.30377883205521E-04
    93 -.33353572809615E-03
    94 0.88293281284017E-03
    95 0.88712780949049E-04
    96 0.55204002978781E-04
    97 -.49161284858972E-04
    98 -.51488308284261E-03
    99 -.34350733516266E-03
   100 0.29752546613001E-03
   101 0.43539651968380E-04
   102 -.31888366876611E-04
   103 -.11651285091768E-04
   104 0.62165830617915E-04
   105 -.75618150004795E-04
   106 -.47052912926506E-04
   107 0.79360010945119E-04
   108 0.19587396091497E-04
   109 0.10196143090700E-04
   110 -.43574020973229E-04
   111 -.28034706263471E-04
   112 0.72075285630392E-04
   113 0.27439075898307E-04
   114 -.28173795269574E-04
   115 -.12249352014094E-04
   116 0.62097592933171E-04
 Sym=     2a   
 Ene= -.19983957321960E+02
 Spin= Alpha
 Occup= 2.000000
     1 -.32599583377285E+00
     2 0.10405102424341E+01
     3 0.21233432975918E-01
     4 -.12199254268729E-02
     5 0.65167198226162E-03
     6 0.21554298452682E-02
     7 0.47346364040414E-03
     8 -.20159287366727E-02
     9 0.61528114672190E-03
    10 0.29472720792813E-03
    11 -.46496646878904E-03
    12 0.39817034589698E-03
    13 -.10969701976979E-02
    14 -.19800328043422E-02
    15 -.32375805098457E-04
    16 0.32205303449289E-04
    17 0.17050164916758E-06
    18 0.27014963571379E-04
    19 -.23517405286083E-05
    20 0.36192238102573E-04
    21 0.81222198660849E-03
    22 -.68092327151511E-03
    23 -.13129871509338E-03
    24 0.38037731506584E-03
    25 -.25055983114091E-03
    26 -.86072469253430E-03
    27 -.45137295860477E-04
    28 -.37973605157169E-04
    29 0.85074238950904E-04
    30 0.21400777204880E-04
    31 0.74776982589349E-04
    32 -.10560739769403E-03
    33 0.39157259913848E-04
    34 -.23830045100050E-04
    35 -.85316711629341E-05
    36 -.80009598144449E-04
    37 0.21347842493892E-04
    38 0.54644785715359E-03
    39 -.65260219788849E-03
    40 -.11847488966265E-03
    41 0.24311785491534E-03
    42 -.29590940882919E-03
    43 0.56953800577466E-03
    44 -.98371467064115E-03
    45 0.10254158963803E-02
    46 0.66633727441619E-04
    47 -.44308974476911E-04
    48 -.22324752964708E-04
    49 0.36595761579989E-04
    50 -.46041114026155E-04
    51 0.16569659548895E-03
    52 0.30990752454173E-04
    53 0.75934956178566E-03
    54 -.12144598295804E-02
    55 0.38356435834150E-03
    56 -.10895574541489E-05
    57 0.15533970988755E-03
    58 -.18352309127785E-02
    59 0.72734751908268E-04
    60 -.12953944113733E-02
    61 -.15630620569238E-03
    62 0.77660856963747E-04
    63 0.78645348728636E-04
    64 -.76205013605908E-04
    65 -.99190104460794E-04
    66 -.39569379633996E-04
    67 -.60270113530904E-03
    68 -.42225270825129E-03
    69 0.21562466556911E-03
    70 0.16228405365393E-03
    71 -.21598796328071E-03
    72 -.19131384713756E-04
    73 -.72119423545495E-03
    74 0.19730426339625E-02
    75 0.33698986547266E-04
    76 0.14015710758317E-03
    77 0.95669726400590E-04
    78 0.18131103714836E-04
    79 -.10079988548030E-02
    80 -.79926862093170E-03
    81 -.29340997503226E-04
    82 0.41758733475881E-04
    83 -.12417735972655E-04
    84 0.22526160410556E-04
    85 -.64222882073831E-05
    86 0.51816028620580E-04
    87 -.32587063850442E-03
    88 0.80596531758303E-03
    89 -.56422308306054E-04
    90 -.45300579999749E-04
    91 -.30736042614821E-04
    92 0.29718857317151E-04
    93 0.11861356212555E-02
    94 -.37702775046711E-02
    95 -.18599421053446E-03
    96 -.13340965198269E-03
    97 0.87055242150627E-04
    98 0.20476045300062E-02
    99 0.13237160565152E-02
   100 -.12324117585851E-02
   101 -.18008154316239E-03
   102 0.13479804351180E-03
   103 0.45283499650597E-04
   104 -.25171119955334E-03
   105 0.31597525287710E-03
   106 0.19051941952825E-03
   107 -.23342769634926E-03
   108 -.48284020874082E-04
   109 -.27216194731632E-04
   110 0.11941859883308E-03
   111 0.82527442255064E-04
   112 -.22927872194235E-03
   113 -.13604982056278E-03
   114 0.87357246602262E-04
   115 0.68439507811625E-04
   116 -.24734143274219E-03
 Sym=     3a   
 Ene= -.19298362882718E+02
 Spin= Alpha
 Occup= 2.000000
     1 0.42452984435974E-04
     2 -.72593099522900E-04
     3 0.68177240415309E-03
     4 -.38132916735413E-02
     5 0.93059109001817E-03
     6 -.32212307352336E-05
     7 -.31861928863384E-04
     8 -.15966161483662E-04
     9 0.10979684359899E-04
    10 0.19654283946439E-03
    11 0.10368589043262E-03
    12 0.54042093549121E-03
    13 -.39393496182357E-02
    14 -.20277305986604E-02
    15 -.79015136918535E-04
    16 0.89345327881035E-04
    17 -.10330190962500E-04
    18 0.19394967026402E-04
    19 -.26049707494384E-04
    20 0.13936688177651E-03
    21 0.67505566181071E-03
    22 -.81225223754869E-03
    23 0.13719657573799E-03
    24 -.11974480511679E-03
    25 0.38902251156450E-05
    26 -.12887781090287E-02
    27 0.58283871454622E-05
    28 -.40547395995119E-04
    29 0.64533498142616E-04
    30 -.20269079319734E-04
    31 0.10441414017560E-03
    32 0.64857492158030E-04
    33 0.12449477405871E-04
    34 -.50014099922187E-04
    35 -.15143826536168E-03
    36 -.19472192721515E-05
    37 0.10296595945200E-03
    38 -.19723098591058E-03
    39 -.21986481160599E-03
    40 0.54297001028420E-05
    41 -.14130248696027E-03
    42 -.79151198745771E-04
    43 0.36402872363936E-04
    44 0.23040501973376E-03
    45 0.48711878705542E-03
    46 -.20486263209285E-04
    47 -.36301568218927E-05
    48 0.24116420031177E-04
    49 0.43272840845730E-05
    50 0.13930120888989E-04
    51 0.16791796997454E-04
    52 0.11548609781991E-03
    53 -.33835089791060E-03
    54 0.43158832973659E-03
    55 -.33351465739775E-04
    56 -.14876694113362E-03
    57 -.12087206003276E-03
    58 0.11373354476139E-03
    59 0.43209523149694E-03
    60 0.36763662855193E-03
    61 0.24517392376591E-04
    62 -.26145709477463E-05
    63 -.21902821428844E-04
    64 -.30927886558510E-04
    65 0.15409242559038E-04
    66 0.49401234467701E-05
    67 -.37501318555325E-04
    68 0.14373377696514E-03
    69 -.37388184218608E-04
    70 -.62767308407224E-04
    71 -.12660130495030E-04
    72 0.98882443764701E+00
    73 -.40601408429055E-01
    74 0.17625402029605E-01
    75 -.29670708549293E-02
    76 -.53682658525119E-03
    77 0.38702146973468E-03
    78 -.17589776243384E-04
    79 -.31442516374528E-02
    80 -.19893499648036E-02
    81 -.28938804247315E-03
    82 -.46359695185564E-05
    83 0.29402401199170E-03
    84 -.33004887613967E-03
    85 -.21389946372630E-03
    86 0.53577142603214E-03
    87 0.11816926769204E-02
    88 -.69496776643458E-03
    89 -.24637582653280E-02
    90 0.79702348263180E-03
    91 -.11876545894450E-02
    92 0.33470767654059E-04
    93 -.29402301989234E-03
    94 0.48912169435203E-03
    95 0.49117582468171E-05
    96 -.85044490455867E-04
    97 -.15751428719445E-04
    98 0.35257664415651E-04
    99 0.74903969154359E-03
   100 0.30534201045935E-03
   101 -.19030361310717E-04
   102 0.96542935239940E-05
   103 0.93760677867229E-05
   104 -.57224808032396E-05
   105 -.18479899339187E-04
   106 0.40728670919547E-04
   107 0.22922721422072E-02
   108 -.15324087641561E-02
   109 -.20048426254092E-02
   110 -.21815108502354E-02
   111 0.14263841500332E-02
   112 0.11565580627309E-03
   113 -.30920806401469E-03
   114 -.35415704970629E-04
   115 -.57798172294266E-04
   116 0.33206021285771E-04
 Sym=     4a   
 Ene= -.19186647636545E+02
 Spin= Alpha
 Occup= 2.000000
     1 -.29314964687659E-04
     2 0.14970307876627E-03
     3 -.39183480216074E-04
     4 -.66942199735282E-02
     5 0.17494810184971E-02
     6 0.38187587740868E-04
     7 -.13876412629649E-03
     8 0.92326023640556E-04
     9 -.18095983838933E-03
    10 0.64468526814539E-03
    11 -.42100698034467E-03
    12 -.19428218601598E-02
    13 0.46504944654421E-02
    14 -.54874891039357E-02
    15 -.95628689734280E-05
    16 0.22228696363170E-05
    17 0.73399993371109E-05
    18 0.13180534116438E-04
    19 0.19536745873889E-04
    20 0.64682382080501E-04
    21 0.77226813000166E-03
    22 -.60585170164434E-03
    23 -.16641642835732E-03
    24 0.58705579112677E-03
    25 -.62233617452826E-03
    26 0.10753761825688E-02
    27 -.39860834562118E-04
    28 -.98199039004820E-05
    29 0.16834575551994E-04
    30 0.33239825691163E-04
    31 0.45600437312593E-04
    32 -.53080937056802E-04
    33 0.20239095741299E-04
    34 -.32425653720197E-04
    35 0.30494983872833E-04
    36 -.40040160461365E-04
    37 0.98908174916040E+00
    38 -.39333880072661E-01
    39 0.22673931656915E-01
    40 -.96892921372598E-03
    41 -.95851850125118E-04
    42 0.10051993968385E-02
    43 -.65048771662664E-03
    44 0.31225280601426E-02
    45 -.28831003505386E-02
    46 -.19454995371504E-03
    47 0.21170098120566E-04
    48 0.17337985559448E-03
    49 0.25134822755634E-03
    50 0.76199787641790E-04
    51 -.12740470015470E-03
    52 0.16915067882029E-02
    53 -.26264222543460E-03
    54 -.10715076914668E-03
    55 0.27076600888364E-04
    56 0.15585522052576E-03
    57 -.10159140824817E-03
    58 -.35201900834400E-03
    59 -.61028758625668E-03
    60 0.24252874444869E-03
    61 -.12055695192542E-04
    62 0.36045446304320E-04
    63 -.23989751111778E-04
    64 0.98886359070474E-05
    65 -.26580051135120E-04
    66 -.12277594225742E-04
    67 0.32066087553645E-03
    68 -.85731496908449E-03
    69 -.51088284302166E-04
    70 0.29089354734908E-04
    71 0.12753109443324E-04
    72 -.15432130356577E-03
    73 -.19079387681978E-03
    74 0.26929534555896E-03
    75 0.11242478346115E-04
    76 0.13378893419740E-03
    77 -.26263931308145E-04
    78 -.27647875590356E-04
    79 -.64915813151660E-03
    80 0.32931526319817E-03
    81 0.13991240219073E-04
    82 -.98455018211558E-05
    83 -.41457383979175E-05
    84 -.28000263132227E-04
    85 0.34812067904618E-04
    86 0.22097775681472E-05
    87 -.20145055487830E-03
    88 0.11936091104312E-02
    89 0.83421634831111E-04
    90 -.16993827074542E-03
    91 -.10514529413293E-03
    92 0.45751837987468E-03
    93 -.23657776594283E-03
    94 -.58687126199464E-03
    95 -.80073347894080E-04
    96 0.15594018449065E-03
    97 -.23633448266443E-03
    98 0.64824455402350E-03
    99 -.31146477686284E-03
   100 0.62024412235055E-03
   101 0.98972078572802E-05
   102 -.47525143635048E-05
   103 -.51446934937754E-05
   104 -.47729087273741E-04
   105 0.15569643793636E-04
   106 -.31415421391357E-04
   107 0.42594501030206E-03
   108 -.74025838204913E-03
   109 -.11799564057599E-03
   110 0.38792119265234E-04
   111 0.11266186559615E-04
   112 0.23423608771541E-03
   113 -.79222902161717E-03
   114 -.16141743446823E-02
   115 0.98276205215106E-03
   116 0.51354148705338E-03
 Sym=     5a   
 Ene= -.19175934047887E+02
 Spin= Alpha
 Occup= 2.000000
     1 -.44418036853360E-04
     2 0.18078491763168E-03
     3 -.26376802343413E-03
     4 -.57203512343544E-02
     5 0.19730061221387E-02
     6 -.15609557424915E-03
     7 -.21031175320057E-04
     8 -.71081326380781E-04
     9 0.73111045547188E-03
    10 0.94760066768966E-04
    11 0.34308403402705E-03
    12 0.65839211730153E-02
    13 0.11534208689131E-02
    14 0.24888568966382E-02
    15 -.26316995065335E-04
    16 0.28870327983238E-04
    17 -.25533329179038E-05
    18 -.27015413617392E-04
    19 -.33065093146516E-04
    20 -.84767656068346E-05
    21 -.92363563874964E-03
    22 0.59740761734956E-03
    23 0.32622802140008E-03
    24 -.11337689455386E-03
    25 -.10701288599608E-02
    26 -.16214200424613E-03
    27 -.47850035365220E-04
    28 0.11601707353689E-04
    29 0.62279392156992E-04
    30 0.57296375980111E-04
    31 -.30561232152708E-05
    32 -.10532548089866E-03
    33 0.69011831013288E-05
    34 -.12509200563474E-04
    35 0.21768908222423E-04
    36 -.42839008423341E-04
    37 -.17561265660139E-02
    38 -.18606279326870E-03
    39 0.21747863212184E-03
    40 0.20125025140066E-03
    41 0.81098553052700E-04
    42 0.78740641590151E-04
    43 -.59822573980508E-03
    44 -.51090068128320E-03
    45 -.17089422962981E-03
    46 0.24693949816599E-04
    47 -.16935557166100E-04
    48 -.77583926504983E-05
    49 0.21975077122986E-04
    50 0.63169794016818E-05
    51 0.19942203912521E-04
    52 0.98894499436305E+00
    53 -.40028328321448E-01
    54 0.21289902250135E-01
    55 -.44895797477291E-03
    56 -.87222617933247E-03
    57 0.16139479884006E-02
    58 0.38538907580036E-02
    59 0.33881363582522E-03
    60 0.23370538244455E-02
    61 0.31412744939184E-03
    62 0.24136524339903E-03
    63 -.55549269279087E-03
    64 0.12649361403221E-03
    65 -.29782390573299E-03
    66 0.34381295747027E-03
    67 0.24659142731498E-02
    68 -.12628547938110E-02
    69 0.59674252473913E-03
    70 -.11531409335519E-02
    71 0.31027510613917E-02
    72 -.17981098647470E-03
    73 -.14073765204418E-03
    74 -.24133992431137E-04
    75 0.13199262357844E-03
    76 0.80638720523979E-05
    77 0.29550103405003E-05
    78 -.86509075459789E-03
    79 -.81074015674027E-05
    80 -.30845102253113E-04
    81 -.25852715375351E-04
    82 0.15523345184086E-05
    83 0.24300380856943E-04
    84 -.88498490653799E-06
    85 -.72000871373533E-05
    86 -.41190704643138E-05
    87 0.49996284202567E-03
    88 -.94466821324772E-03
    89 -.52328914265901E-04
    90 0.15233709341158E-03
    91 0.36255290383501E-04
    92 -.18833618398569E-03
    93 0.15134128465225E-03
    94 -.14784903063321E-02
    95 0.24505706492034E-03
    96 0.35306912041311E-05
    97 0.10404087127011E-03
    98 -.36411240696871E-03
    99 0.15108770837001E-03
   100 -.55982478964273E-03
   101 -.15719510501091E-04
   102 -.28596692421572E-04
   103 0.44316202922664E-04
   104 -.33445386191948E-05
   105 0.38250239324569E-04
   106 -.19923629873875E-04
   107 0.25776076429435E-03
   108 0.83509014299538E-04
   109 0.70348129440029E-04
   110 -.60649014667640E-04
   111 0.97319130156733E-04
   112 0.12146189029155E-03
   113 -.63894728789338E-03
   114 0.62040849155194E-04
   115 -.29948344149040E-04
   116 0.73835211659092E-04
 Sym=     6a   
 Ene= -.19156005243248E+02
 Spin= Alpha
 Occup= 2.000000
     1 -.55131090517954E-04
     2 0.13229127261658E-03
     3 -.80869120500239E-03
     4 -.83441398107015E-02
     5 0.85771160006389E-03
     6 0.13010679719573E-03
     7 0.33848175068215E-04
     8 -.11823706948861E-03
     9 -.82295692688011E-03
    10 -.26493156227084E-03
    11 0.71072735230544E-03
    12 -.66643207174431E-02
    13 -.41991772592311E-02
    14 0.25357873921033E-02
    15 0.97373683115310E-05
    16 0.11444241693432E-04
    17 -.21181610004963E-04
    18 0.91324138893495E-04
    19 -.11356157608571E-03
    20 0.11685738078252E-04
    21 -.61875799138588E-04
    22 -.16291923698126E-04
    23 0.78167722836714E-04
    24 -.54198229845779E-03
    25 0.88759623249866E-03
    26 0.11827720856848E-03
    27 -.48645724703831E-04
    28 -.16548843562792E-03
    29 0.20165211764348E-03
    30 -.33397885345877E-04
    31 0.19996040424898E-03
    32 -.29052470696639E-03
    33 0.98662973697381E-04
    34 0.22065630683486E-04
    35 0.19980001251832E-04
    36 -.22265853292102E-03
    37 -.50911351679621E-03
    38 -.10644684806735E-03
    39 -.29640071253404E-03
    40 -.18408083514285E-03
    41 -.20069003369345E-03
    42 0.64909044107939E-04
    43 0.86000776207219E-03
    44 0.40863737800612E-03
    45 0.16880854661236E-04
    46 0.36824349467528E-04
    47 -.19202651783298E-04
    48 -.17621697684229E-04
    49 0.25899278026062E-04
    50 -.37756321289028E-04
    51 0.25761559055881E-04
    52 0.20799317169600E-03
    53 0.25569425183414E-03
    54 -.16746905729753E-02
    55 -.16366165626363E-03
    56 -.14937573128308E-03
    57 0.10326744600283E-03
    58 -.16530217182601E-03
    59 0.43948463824832E-03
    60 -.83554998766615E-03
    61 -.54379771877762E-04
    62 0.94227662998814E-05
    63 0.44957005577880E-04
    64 -.11452937112459E-04
    65 -.46166322492036E-04
    66 -.35751183914882E-04
    67 -.40694119335268E-03
    68 0.81465420410346E-03
    69 0.87490151017265E-04
    70 0.37874218368493E-05
    71 0.13162352681355E-04
    72 -.77507489349922E-04
    73 -.29659044344990E-03
    74 0.95944598082069E-03
    75 0.32313880470255E-04
    76 0.44867340809959E-04
    77 0.10466003442918E-03
    78 -.22412370916271E-03
    79 -.28672992774418E-03
    80 -.10150543165659E-02
    81 -.70677992204129E-04
    82 0.26974279086010E-04
    83 0.43703713118119E-04
    84 0.23440167717356E-04
    85 -.37725465689097E-04
    86 0.54471964981861E-04
    87 0.34144611871575E-03
    88 0.14881780358927E-02
    89 -.85368841763071E-04
    90 -.19536029907880E-03
    91 -.23562197418824E-03
    92 0.98900820877166E+00
    93 -.40064836496469E-01
    94 0.24889118710764E-01
    95 0.12236848740286E-02
    96 0.61680910903092E-03
    97 -.90816896821540E-03
    98 -.30217324497557E-02
    99 -.13852553232907E-02
   100 0.23419357733431E-02
   101 -.41668287109517E-04
   102 0.22626260955702E-04
   103 0.19042026153816E-04
   104 -.73621760295198E-04
   105 0.60391527546689E-04
   106 0.49394770976456E-04
   107 -.49374859482558E-04
   108 0.15112222909461E-03
   109 0.68416695687125E-04
   110 -.25570351280093E-04
   111 -.10466748970074E-03
   112 -.34093267356919E-03
   113 0.11286218693301E-02
   114 -.31857409440402E-04
   115 0.66302544521652E-04
   116 -.15757414523703E-03
 Sym=     7a   
 Ene= -.16672774415855E+02
 Spin= Alpha
 Occup= 2.000000
     1 -.11586797283239E-03
     2 0.37643715302567E-03
     3 -.33146907629961E-04
     4 -.99474696146573E-03
     5 0.18537898416752E-03
     6 0.60300161779740E+00
     7 -.26173771776487E+00
     8 0.74392076440752E+00
     9 0.12974873400246E-01
    10 -.56864385485575E-02
    11 0.15968696150084E-01
    12 0.76754130824241E-03
    13 -.12613859886974E-02
    14 0.37907235030279E-03
    15 0.11785225227705E-03
    16 0.23635487033451E-04
    17 -.14148773931050E-03
    18 -.18077129668700E-04
    19 0.18920014655524E-04
    20 0.73821174808907E-04
    21 -.17561051593302E-02
    22 0.11034954317483E-02
    23 0.65260972758194E-03
    24 -.79528230342684E-03
    25 -.49433052741779E-03
    26 -.13117888414153E-02
    27 0.20358360930559E-04
    28 -.59514316924322E-05
    29 -.16003510008406E-03
    30 -.52067529405770E-04
    31 0.10543252523860E-03
    32 0.13059608162316E-03
    33 0.24753922035047E-04
    34 -.97447841741964E-04
    35 0.84113535921211E-04
    36 -.37840984870711E-04
    37 0.17110524291293E-03
    38 0.17007180592709E-02
    39 -.48669837815375E-02
    40 -.15141746870312E-03
    41 0.42109458739135E-03
    42 -.34999804915687E-03
    43 0.12506231283369E-02
    44 -.28251654258944E-02
    45 0.26350106945310E-02
    46 0.18888273812317E-03
    47 -.98415963709347E-04
    48 -.90466774413827E-04
    49 0.15460134727717E-03
    50 -.10020139595557E-03
    51 0.35260774724053E-03
    52 -.17697478166698E-03
    53 -.17448498509509E-02
    54 0.49118395604076E-02
    55 -.48832107638873E-03
    56 -.79938875066997E-04
    57 -.29108349326503E-03
    58 0.37529638828921E-02
    59 0.33033014354300E-03
    60 0.22709249042873E-02
    61 0.32306778390243E-03
    62 -.22124023628729E-03
    63 -.10182754761514E-03
    64 0.78978783829948E-04
    65 0.25398472704625E-03
    66 0.34508438270461E-04
    67 0.40010086773871E-03
    68 0.29598478853718E-03
    69 -.58564228864932E-03
    70 -.24048601017512E-03
    71 0.66506840952817E-04
    72 0.74866342046800E-06
    73 0.27780827062685E-05
    74 -.68177858618933E-04
    75 -.21323565954571E-04
    76 -.17974148644521E-04
    77 -.25977413730506E-04
    78 -.17471883800542E-03
    79 0.37637984961615E-04
    80 -.10364526849254E-03
    81 -.19709728184618E-04
    82 0.25737726422227E-04
    83 -.60279982376082E-05
    84 0.16956699816459E-04
    85 -.26680121489065E-04
    86 0.17534261340114E-04
    87 0.16524693584112E-03
    88 0.65266488335336E-03
    89 -.10383582130077E-03
    90 -.12283987604244E-03
    91 -.23509061433904E-03
    92 -.19076791178130E-04
    93 -.20118637852208E-03
    94 0.89915506589964E-03
    95 0.42889187822647E-04
    96 -.46591557954354E-04
    97 0.45133456250165E-04
    98 0.99890651647352E-05
    99 -.18940092116956E-03
   100 0.54753179880396E-03
   101 0.58207204482070E-04
   102 -.25207597487756E-04
   103 -.32999606994315E-04
   104 0.45869490351864E-04
   105 -.37596063583338E-05
   106 0.20308944611809E-04
   107 0.28469912697898E-04
   108 -.13030880996775E-03
   109 0.10080138113553E-04
   110 -.88899447831759E-05
   111 -.54271619493322E-04
   112 -.92732242049227E-04
   113 -.26881036791722E-03
   114 0.90847961489713E-04
   115 0.27534681454206E-03
   116 -.43948045058048E-03
 Sym=     8a   
 Ene= -.16672547483200E+02
 Spin= Alpha
 Occup= 2.000000
     1 -.36862342322820E-03
     2 0.12094663639507E-02
     3 0.38819837786578E-04
     4 -.36120878082634E-02
     5 0.77920950925898E-03
     6 -.22708900193476E+00
     7 0.83934643154214E+00
     8 0.47943646580275E+00
     9 -.48139031803337E-02
    10 0.17459955382265E-01
    11 0.99638083334541E-02
    12 -.31140172714242E-03
    13 -.40983397168700E-02
    14 -.29562251361904E-02
    15 -.87128702625900E-04
    16 0.13340471609816E-03
    17 -.46276013472260E-04
    18 0.87631603488239E-04
    19 0.87123803259212E-04
    20 0.54141684530335E-04
    21 0.21685628249952E-03
    22 -.20027502234416E-03
    23 -.16581260155357E-04
    24 -.48308786160862E-04
    25 0.14941313447984E-04
    26 0.25170618459287E-03
    27 0.35717738273949E-04
    28 0.50048029119092E-06
    29 0.72097390945940E-05
    30 -.11776988431115E-04
    31 -.40927779185977E-04
    32 0.62398007537205E-04
    33 -.36143386038742E-04
    34 0.40256314414476E-04
    35 -.72070887566535E-04