[Molden Format]
[Title]
                                                                                
[Atoms] AU
 c     1    6 -.10473937173614E+01 -.27103548920857E+01 -.15000365461008E+01
 c     2    6 -.27794250759584E+01 -.61360996792820E+00 -.15515066815239E+01
 c     3    6 0.15482924526295E+01 -.22748075403162E+01 -.17136429593217E+01
 c     4    6 0.24803964038031E+01 0.24851487671224E+00 -.21163319952098E+01
 c     5    6 0.79382282482901E+00 0.22800268888800E+01 -.21633247115318E+01
 c     6    6 -.18809571005466E+01 0.18386913718553E+01 -.19431189808765E+01
 c     7    6 0.32843331306955E+01 -.37100267740749E+01 -.28711408792153E+00
 c     8    6 0.22311181945763E+01 -.57024387257605E+01 0.11365026854285E+01
 n     9    7 -.31523336449711E+00 -.60730654807650E+01 0.14426413018689E+01
 c    10    6 -.19087012707363E+01 -.45258759545117E+01 0.24606046457079E+00
 c    11    6 -.46639086275565E+01 -.38299123010491E+01 0.98715285130861E+00
 c    12    6 -.48494316849195E+01 -.10548665052341E+01 0.70468448728880E-01
 c    13    6 -.60374680595570E+01 0.11274829134430E+01 0.10363452607388E+01
 n    14    7 -.51049385016728E+01 0.35284573684280E+01 0.75131269078983E+00
 c    15    6 -.30015674559400E+01 0.38491285664274E+01 -.60508105446785E+00
 c    16    6 -.10271703239398E+01 0.60145650387903E+01 -.40930420215734E+00
 c    17    6 0.14610571292278E+01 0.46202333987490E+01 -.10735354520909E+01
 c    18    6 0.57343867199118E+01 -.21246530393191E+01 -.43580406785580E-01
 c    19    6 0.48113115590366E+01 0.53966178613092E+00 -.86364624804558E+00
 n    20    7 0.55942615980397E+01 0.27875204440511E+01 -.27023679713610E-01
 c    21    6 0.39665027960906E+01 0.47981879201599E+01 -.18027346656911E+00
 h    22    1 0.46721386110054E+01 0.65456521408824E+01 0.69521179963408E+00
 h    23    1 0.64762756170975E+01 -.20905006064308E+01 0.19084799269557E+01
 h    24    1 0.72742401160111E+01 -.28265977635389E+01 -.12829219189562E+01
 h    25    1 0.34271449530193E+01 -.69343439765458E+01 0.23069708931439E+01
 h    26    1 -.76717740861400E+01 0.98455995950848E+00 0.23118509730562E+01
 h    27    1 -.60587143413158E+01 -.50831030278615E+01 0.47750386543230E-01
 h    28    1 -.49530781163592E+01 -.40135123120988E+01 0.30475414752023E+01
 h    29    1 -.14556703112705E+01 0.75765647538792E+01 -.17416930831333E+01
 h    30    1 -.99985006820217E+00 0.68284214396227E+01 0.15138463164359E+01
[GTO]
    1 0
 s    5 1.00
 0.12384016938000E+04 0.55173650481097E-02
 0.18629004992000E+03 0.41088828555946E-01
 0.42251176346000E+02 0.18225382126490E+00
 0.11676557932000E+02 0.46828459437429E+00
 0.35930506482000E+01 0.44575817336002E+00
 s    1 1.00
 0.40245147363000E+00 0.10000000000000E+01
 s    1 1.00
 0.13090182668000E+00 0.10000000000000E+01
 p    3 1.00
 0.94680970621000E+01 0.56888332011037E-01
 0.20103545142000E+01 0.31294059336471E+00
 0.54771004707000E+00 0.76065016509135E+00
 p    1 1.00
 0.15268613795000E+00 0.10000000000000E+01
 d    1 1.00
 0.80000000000000E+00 0.10000000000000E+01
 
    2 0
 s    5 1.00
 0.12384016938000E+04 0.55173650481097E-02
 0.18629004992000E+03 0.41088828555946E-01
 0.42251176346000E+02 0.18225382126490E+00
 0.11676557932000E+02 0.46828459437429E+00
 0.35930506482000E+01 0.44575817336002E+00
 s    1 1.00
 0.40245147363000E+00 0.10000000000000E+01
 s    1 1.00
 0.13090182668000E+00 0.10000000000000E+01
 p    3 1.00
 0.94680970621000E+01 0.56888332011037E-01
 0.20103545142000E+01 0.31294059336471E+00
 0.54771004707000E+00 0.76065016509135E+00
 p    1 1.00
 0.15268613795000E+00 0.10000000000000E+01
 d    1 1.00
 0.80000000000000E+00 0.10000000000000E+01
 
    3 0
 s    5 1.00
 0.12384016938000E+04 0.55173650481097E-02
 0.18629004992000E+03 0.41088828555946E-01
 0.42251176346000E+02 0.18225382126490E+00
 0.11676557932000E+02 0.46828459437429E+00
 0.35930506482000E+01 0.44575817336002E+00
 s    1 1.00
 0.40245147363000E+00 0.10000000000000E+01
 s    1 1.00
 0.13090182668000E+00 0.10000000000000E+01
 p    3 1.00
 0.94680970621000E+01 0.56888332011037E-01
 0.20103545142000E+01 0.31294059336471E+00
 0.54771004707000E+00 0.76065016509135E+00
 p    1 1.00
 0.15268613795000E+00 0.10000000000000E+01
 d    1 1.00
 0.80000000000000E+00 0.10000000000000E+01
 
    4 0
 s    5 1.00
 0.12384016938000E+04 0.55173650481097E-02
 0.18629004992000E+03 0.41088828555946E-01
 0.42251176346000E+02 0.18225382126490E+00
 0.11676557932000E+02 0.46828459437429E+00
 0.35930506482000E+01 0.44575817336002E+00
 s    1 1.00
 0.40245147363000E+00 0.10000000000000E+01
 s    1 1.00
 0.13090182668000E+00 0.10000000000000E+01
 p    3 1.00
 0.94680970621000E+01 0.56888332011037E-01
 0.20103545142000E+01 0.31294059336471E+00
 0.54771004707000E+00 0.76065016509135E+00
 p    1 1.00
 0.15268613795000E+00 0.10000000000000E+01
 d    1 1.00
 0.80000000000000E+00 0.10000000000000E+01
 
    5 0
 s    5 1.00
 0.12384016938000E+04 0.55173650481097E-02
 0.18629004992000E+03 0.41088828555946E-01
 0.42251176346000E+02 0.18225382126490E+00
 0.11676557932000E+02 0.46828459437429E+00
 0.35930506482000E+01 0.44575817336002E+00
 s    1 1.00
 0.40245147363000E+00 0.10000000000000E+01
 s    1 1.00
 0.13090182668000E+00 0.10000000000000E+01
 p    3 1.00
 0.94680970621000E+01 0.56888332011037E-01
 0.20103545142000E+01 0.31294059336471E+00
 0.54771004707000E+00 0.76065016509135E+00
 p    1 1.00
 0.15268613795000E+00 0.10000000000000E+01
 d    1 1.00
 0.80000000000000E+00 0.10000000000000E+01
 
    6 0
 s    5 1.00
 0.12384016938000E+04 0.55173650481097E-02
 0.18629004992000E+03 0.41088828555946E-01
 0.42251176346000E+02 0.18225382126490E+00
 0.11676557932000E+02 0.46828459437429E+00
 0.35930506482000E+01 0.44575817336002E+00
 s    1 1.00
 0.40245147363000E+00 0.10000000000000E+01
 s    1 1.00
 0.13090182668000E+00 0.10000000000000E+01
 p    3 1.00
 0.94680970621000E+01 0.56888332011037E-01
 0.20103545142000E+01 0.31294059336471E+00
 0.54771004707000E+00 0.76065016509135E+00
 p    1 1.00
 0.15268613795000E+00 0.10000000000000E+01
 d    1 1.00
 0.80000000000000E+00 0.10000000000000E+01
 
    7 0
 s    5 1.00
 0.12384016938000E+04 0.55173650481097E-02
 0.18629004992000E+03 0.41088828555946E-01
 0.42251176346000E+02 0.18225382126490E+00
 0.11676557932000E+02 0.46828459437429E+00
 0.35930506482000E+01 0.44575817336002E+00
 s    1 1.00
 0.40245147363000E+00 0.10000000000000E+01
 s    1 1.00
 0.13090182668000E+00 0.10000000000000E+01
 p    3 1.00
 0.94680970621000E+01 0.56888332011037E-01
 0.20103545142000E+01 0.31294059336471E+00
 0.54771004707000E+00 0.76065016509135E+00
 p    1 1.00
 0.15268613795000E+00 0.10000000000000E+01
 d    1 1.00
 0.80000000000000E+00 0.10000000000000E+01
 
    8 0
 s    5 1.00
 0.12384016938000E+04 0.55173650481097E-02
 0.18629004992000E+03 0.41088828555946E-01
 0.42251176346000E+02 0.18225382126490E+00
 0.11676557932000E+02 0.46828459437429E+00
 0.35930506482000E+01 0.44575817336002E+00
 s    1 1.00
 0.40245147363000E+00 0.10000000000000E+01
 s    1 1.00
 0.13090182668000E+00 0.10000000000000E+01
 p    3 1.00
 0.94680970621000E+01 0.56888332011037E-01
 0.20103545142000E+01 0.31294059336471E+00
 0.54771004707000E+00 0.76065016509135E+00
 p    1 1.00
 0.15268613795000E+00 0.10000000000000E+01
 d    1 1.00
 0.80000000000000E+00 0.10000000000000E+01
 
    9 0
 s    5 1.00
 0.17128415853000E+04 -.54477995804909E-02
 0.25764812677000E+03 -.40627174632423E-01
 0.58458245853000E+02 -.18111962250584E+00
 0.16198367905000E+02 -.46843975563173E+00
 0.50052600809000E+01 -.44616846289231E+00
 s    1 1.00
 0.58731856571000E+00 0.10000000000000E+01
 s    1 1.00
 0.18764592253000E+00 0.10000000000000E+01
 p    3 1.00
 0.13571470233000E+02 -.58848116969522E-01
 0.29257372874000E+01 -.32024624762471E+00
 0.79927750754000E+00 -.75328226520436E+00
 p    1 1.00
 0.21954348034000E+00 0.10000000000000E+01
 d    1 1.00
 0.10000000000000E+01 0.10000000000000E+01
 
   10 0
 s    5 1.00
 0.12384016938000E+04 0.55173650481097E-02
 0.18629004992000E+03 0.41088828555946E-01
 0.42251176346000E+02 0.18225382126490E+00
 0.11676557932000E+02 0.46828459437429E+00
 0.35930506482000E+01 0.44575817336002E+00
 s    1 1.00
 0.40245147363000E+00 0.10000000000000E+01
 s    1 1.00
 0.13090182668000E+00 0.10000000000000E+01
 p    3 1.00
 0.94680970621000E+01 0.56888332011037E-01
 0.20103545142000E+01 0.31294059336471E+00
 0.54771004707000E+00 0.76065016509135E+00
 p    1 1.00
 0.15268613795000E+00 0.10000000000000E+01
 d    1 1.00
 0.80000000000000E+00 0.10000000000000E+01
 
   11 0
 s    5 1.00
 0.12384016938000E+04 0.55173650481097E-02
 0.18629004992000E+03 0.41088828555946E-01
 0.42251176346000E+02 0.18225382126490E+00
 0.11676557932000E+02 0.46828459437429E+00
 0.35930506482000E+01 0.44575817336002E+00
 s    1 1.00
 0.40245147363000E+00 0.10000000000000E+01
 s    1 1.00
 0.13090182668000E+00 0.10000000000000E+01
 p    3 1.00
 0.94680970621000E+01 0.56888332011037E-01
 0.20103545142000E+01 0.31294059336471E+00
 0.54771004707000E+00 0.76065016509135E+00
 p    1 1.00
 0.15268613795000E+00 0.10000000000000E+01
 d    1 1.00
 0.80000000000000E+00 0.10000000000000E+01
 
   12 0
 s    5 1.00
 0.12384016938000E+04 0.55173650481097E-02
 0.18629004992000E+03 0.41088828555946E-01
 0.42251176346000E+02 0.18225382126490E+00
 0.11676557932000E+02 0.46828459437429E+00
 0.35930506482000E+01 0.44575817336002E+00
 s    1 1.00
 0.40245147363000E+00 0.10000000000000E+01
 s    1 1.00
 0.13090182668000E+00 0.10000000000000E+01
 p    3 1.00
 0.94680970621000E+01 0.56888332011037E-01
 0.20103545142000E+01 0.31294059336471E+00
 0.54771004707000E+00 0.76065016509135E+00
 p    1 1.00
 0.15268613795000E+00 0.10000000000000E+01
 d    1 1.00
 0.80000000000000E+00 0.10000000000000E+01
 
   13 0
 s    5 1.00
 0.12384016938000E+04 0.55173650481097E-02
 0.18629004992000E+03 0.41088828555946E-01
 0.42251176346000E+02 0.18225382126490E+00
 0.11676557932000E+02 0.46828459437429E+00
 0.35930506482000E+01 0.44575817336002E+00
 s    1 1.00
 0.40245147363000E+00 0.10000000000000E+01
 s    1 1.00
 0.13090182668000E+00 0.10000000000000E+01
 p    3 1.00
 0.94680970621000E+01 0.56888332011037E-01
 0.20103545142000E+01 0.31294059336471E+00
 0.54771004707000E+00 0.76065016509135E+00
 p    1 1.00
 0.15268613795000E+00 0.10000000000000E+01
 d    1 1.00
 0.80000000000000E+00 0.10000000000000E+01
 
   14 0
 s    5 1.00
 0.17128415853000E+04 -.54477995804909E-02
 0.25764812677000E+03 -.40627174632423E-01
 0.58458245853000E+02 -.18111962250584E+00
 0.16198367905000E+02 -.46843975563173E+00
 0.50052600809000E+01 -.44616846289231E+00
 s    1 1.00
 0.58731856571000E+00 0.10000000000000E+01
 s    1 1.00
 0.18764592253000E+00 0.10000000000000E+01
 p    3 1.00
 0.13571470233000E+02 -.58848116969522E-01
 0.29257372874000E+01 -.32024624762471E+00
 0.79927750754000E+00 -.75328226520436E+00
 p    1 1.00
 0.21954348034000E+00 0.10000000000000E+01
 d    1 1.00
 0.10000000000000E+01 0.10000000000000E+01
 
   15 0
 s    5 1.00
 0.12384016938000E+04 0.55173650481097E-02
 0.18629004992000E+03 0.41088828555946E-01
 0.42251176346000E+02 0.18225382126490E+00
 0.11676557932000E+02 0.46828459437429E+00
 0.35930506482000E+01 0.44575817336002E+00
 s    1 1.00
 0.40245147363000E+00 0.10000000000000E+01
 s    1 1.00
 0.13090182668000E+00 0.10000000000000E+01
 p    3 1.00
 0.94680970621000E+01 0.56888332011037E-01
 0.20103545142000E+01 0.31294059336471E+00
 0.54771004707000E+00 0.76065016509135E+00
 p    1 1.00
 0.15268613795000E+00 0.10000000000000E+01
 d    1 1.00
 0.80000000000000E+00 0.10000000000000E+01
 
   16 0
 s    5 1.00
 0.12384016938000E+04 0.55173650481097E-02
 0.18629004992000E+03 0.41088828555946E-01
 0.42251176346000E+02 0.18225382126490E+00
 0.11676557932000E+02 0.46828459437429E+00
 0.35930506482000E+01 0.44575817336002E+00
 s    1 1.00
 0.40245147363000E+00 0.10000000000000E+01
 s    1 1.00
 0.13090182668000E+00 0.10000000000000E+01
 p    3 1.00
 0.94680970621000E+01 0.56888332011037E-01
 0.20103545142000E+01 0.31294059336471E+00
 0.54771004707000E+00 0.76065016509135E+00
 p    1 1.00
 0.15268613795000E+00 0.10000000000000E+01
 d    1 1.00
 0.80000000000000E+00 0.10000000000000E+01
 
   17 0
 s    5 1.00
 0.12384016938000E+04 0.55173650481097E-02
 0.18629004992000E+03 0.41088828555946E-01
 0.42251176346000E+02 0.18225382126490E+00
 0.11676557932000E+02 0.46828459437429E+00
 0.35930506482000E+01 0.44575817336002E+00
 s    1 1.00
 0.40245147363000E+00 0.10000000000000E+01
 s    1 1.00
 0.13090182668000E+00 0.10000000000000E+01
 p    3 1.00
 0.94680970621000E+01 0.56888332011037E-01
 0.20103545142000E+01 0.31294059336471E+00
 0.54771004707000E+00 0.76065016509135E+00
 p    1 1.00
 0.15268613795000E+00 0.10000000000000E+01
 d    1 1.00
 0.80000000000000E+00 0.10000000000000E+01
 
   18 0
 s    5 1.00
 0.12384016938000E+04 0.55173650481097E-02
 0.18629004992000E+03 0.41088828555946E-01
 0.42251176346000E+02 0.18225382126490E+00
 0.11676557932000E+02 0.46828459437429E+00
 0.35930506482000E+01 0.44575817336002E+00
 s    1 1.00
 0.40245147363000E+00 0.10000000000000E+01
 s    1 1.00
 0.13090182668000E+00 0.10000000000000E+01
 p    3 1.00
 0.94680970621000E+01 0.56888332011037E-01
 0.20103545142000E+01 0.31294059336471E+00
 0.54771004707000E+00 0.76065016509135E+00
 p    1 1.00
 0.15268613795000E+00 0.10000000000000E+01
 d    1 1.00
 0.80000000000000E+00 0.10000000000000E+01
 
   19 0
 s    5 1.00
 0.12384016938000E+04 0.55173650481097E-02
 0.18629004992000E+03 0.41088828555946E-01
 0.42251176346000E+02 0.18225382126490E+00
 0.11676557932000E+02 0.46828459437429E+00
 0.35930506482000E+01 0.44575817336002E+00
 s    1 1.00
 0.40245147363000E+00 0.10000000000000E+01
 s    1 1.00
 0.13090182668000E+00 0.10000000000000E+01
 p    3 1.00
 0.94680970621000E+01 0.56888332011037E-01
 0.20103545142000E+01 0.31294059336471E+00
 0.54771004707000E+00 0.76065016509135E+00
 p    1 1.00
 0.15268613795000E+00 0.10000000000000E+01
 d    1 1.00
 0.80000000000000E+00 0.10000000000000E+01
 
   20 0
 s    5 1.00
 0.17128415853000E+04 -.54477995804909E-02
 0.25764812677000E+03 -.40627174632423E-01
 0.58458245853000E+02 -.18111962250584E+00
 0.16198367905000E+02 -.46843975563173E+00
 0.50052600809000E+01 -.44616846289231E+00
 s    1 1.00
 0.58731856571000E+00 0.10000000000000E+01
 s    1 1.00
 0.18764592253000E+00 0.10000000000000E+01
 p    3 1.00
 0.13571470233000E+02 -.58848116969522E-01
 0.29257372874000E+01 -.32024624762471E+00
 0.79927750754000E+00 -.75328226520436E+00
 p    1 1.00
 0.21954348034000E+00 0.10000000000000E+01
 d    1 1.00
 0.10000000000000E+01 0.10000000000000E+01
 
   21 0
 s    5 1.00
 0.12384016938000E+04 0.55173650481097E-02
 0.18629004992000E+03 0.41088828555946E-01
 0.42251176346000E+02 0.18225382126490E+00
 0.11676557932000E+02 0.46828459437429E+00
 0.35930506482000E+01 0.44575817336002E+00
 s    1 1.00
 0.40245147363000E+00 0.10000000000000E+01
 s    1 1.00
 0.13090182668000E+00 0.10000000000000E+01
 p    3 1.00
 0.94680970621000E+01 0.56888332011037E-01
 0.20103545142000E+01 0.31294059336471E+00
 0.54771004707000E+00 0.76065016509135E+00
 p    1 1.00
 0.15268613795000E+00 0.10000000000000E+01
 d    1 1.00
 0.80000000000000E+00 0.10000000000000E+01
 
   22 0
 s    3 1.00
 0.13010701000000E+02 0.33485484812989E-01
 0.19622572000000E+01 0.23472187088125E+00
 0.44453796000000E+00 0.81377028525955E+00
 s    1 1.00
 0.12194962000000E+00 0.10000000000000E+01
 
   23 0
 s    3 1.00
 0.13010701000000E+02 0.33485484812989E-01
 0.19622572000000E+01 0.23472187088125E+00
 0.44453796000000E+00 0.81377028525955E+00
 s    1 1.00
 0.12194962000000E+00 0.10000000000000E+01
 
   24 0
 s    3 1.00
 0.13010701000000E+02 0.33485484812989E-01
 0.19622572000000E+01 0.23472187088125E+00
 0.44453796000000E+00 0.81377028525955E+00
 s    1 1.00
 0.12194962000000E+00 0.10000000000000E+01
 
   25 0
 s    3 1.00
 0.13010701000000E+02 0.33485484812989E-01
 0.19622572000000E+01 0.23472187088125E+00
 0.44453796000000E+00 0.81377028525955E+00
 s    1 1.00
 0.12194962000000E+00 0.10000000000000E+01
 
   26 0
 s    3 1.00
 0.13010701000000E+02 0.33485484812989E-01
 0.19622572000000E+01 0.23472187088125E+00
 0.44453796000000E+00 0.81377028525955E+00
 s    1 1.00
 0.12194962000000E+00 0.10000000000000E+01
 
   27 0
 s    3 1.00
 0.13010701000000E+02 0.33485484812989E-01
 0.19622572000000E+01 0.23472187088125E+00
 0.44453796000000E+00 0.81377028525955E+00
 s    1 1.00
 0.12194962000000E+00 0.10000000000000E+01
 
   28 0
 s    3 1.00
 0.13010701000000E+02 0.33485484812989E-01
 0.19622572000000E+01 0.23472187088125E+00
 0.44453796000000E+00 0.81377028525955E+00
 s    1 1.00
 0.12194962000000E+00 0.10000000000000E+01
 
   29 0
 s    3 1.00
 0.13010701000000E+02 0.33485484812989E-01
 0.19622572000000E+01 0.23472187088125E+00
 0.44453796000000E+00 0.81377028525955E+00
 s    1 1.00
 0.12194962000000E+00 0.10000000000000E+01
 
   30 0
 s    3 1.00
 0.13010701000000E+02 0.33485484812989E-01
 0.19622572000000E+01 0.23472187088125E+00
 0.44453796000000E+00 0.81377028525955E+00
 s    1 1.00
 0.12194962000000E+00 0.10000000000000E+01
 
[MO]
 Sym=     1a   
 Ene= -.14119832002292E+02
 Spin= Alpha
 Occup= 2.000000
     1 0.19621084374664E-04
     2 -.41048235106552E-03
     3 0.37990556588005E-02
     4 -.34896093820445E-04
     5 0.52404134402550E-04
     6 -.14904631271212E-04
     7 0.16269395495653E-02
     8 -.25475539400845E-02
     9 0.23610238382030E-02
    10 -.67169053523981E-05
    11 -.61342867524875E-05
    12 0.12851192104886E-04
    13 0.22829700131274E-04
    14 -.54294564022144E-05
    15 -.68508687547136E-05
    16 0.41890020077327E-05
    17 0.12407171651508E-03
    18 -.22094487427560E-01
    19 0.52742085416810E-05
    20 0.13095235478042E-03
    21 0.74810925336542E-04
    22 0.39317855548761E-02
    23 -.78795941924310E-02
    24 -.42678697107198E-02
    25 -.88818331493532E-05
    26 0.55599769144328E-05
    27 0.33218562349205E-05
    28 -.25882605153608E-04
    29 0.45684765318157E-04
    30 -.21132687587271E-04
    31 0.68016160428885E-05
    32 -.53060821159569E-04
    33 -.13956387645880E-02
    34 0.93647923159272E-05
    35 -.30991394682317E-04
    36 0.21292995827957E-04
    37 0.45770963422644E-03
    38 0.22012792967350E-02
    39 -.13574993016721E-02
    40 -.16511082726508E-04
    41 0.17819896350027E-04
    42 -.13088136235180E-05
    43 -.16827991997684E-04
    44 0.20122951301540E-04
    45 0.11474980925957E-04
    46 0.38114752605133E-05
    47 0.18854997812531E-04
    48 -.36215126492350E-02
    49 -.55740454676566E-04
    50 0.33078647822167E-04
    51 -.30346026756312E-04
    52 0.26692639775864E-02
    53 -.53330500439891E-03
    54 0.83481861721558E-03
    55 -.10069095118785E-04
    56 -.22825522421849E-04
    57 0.32894617540634E-04
    58 0.24527406269776E-04
    59 0.14254521683215E-04
    60 -.13036211431347E-05
    61 -.11848187312180E-04
    62 0.47646278293154E-03
    63 0.28024787211428E-02
    64 -.13318179849745E-04
    65 0.10276686126841E-03
    66 -.12461239979167E-03
    67 -.23795779367336E-03
    68 -.30481208047899E-02
    69 -.16755008690952E-02
    70 0.21516639423705E-04
    71 -.60321412654469E-05
    72 -.15484498158258E-04
    73 -.46190941634419E-04
    74 0.10466923938490E-03
    75 -.29928069370135E-04
    76 0.60476092040896E-04
    77 -.11182594069868E-02
    78 0.18245897679993E-01
    79 -.58918906276931E-04
    80 0.39375703766309E-04
    81 0.28210932500417E-04
    82 -.90396222868104E-02
    83 -.52998043512126E-02
    84 0.59713671158650E-02
    85 0.58189795271486E-04
    86 -.12799841320350E-03
    87 0.69808617932019E-04
    88 -.62291831489036E-04
    89 -.94636562484090E-04
    90 -.44263109320820E-04
    91 -.47523251365189E-05
    92 0.66422315235561E-04
    93 0.18764907810729E-02
    94 -.10135049936993E-04
    95 0.19373009422170E-04
    96 -.46954799654606E-04
    97 -.87260113529891E-03
    98 -.23924383968114E-03
    99 0.11138289083599E-03
   100 0.51169483603278E-06
   101 -.30975763864427E-05
   102 0.25858815504099E-05
   103 0.64620138358181E-05
   104 0.50354360170715E-05
   105 0.57755872076410E-05
   106 0.92808880405030E-05
   107 -.11422285517475E-03
   108 -.91788061534923E-03
   109 0.23388128874793E-04
   110 0.38252976358573E-05
   111 -.20943649992905E-05
   112 -.10641820042804E-04
   113 -.25038057594178E-03
   114 0.12830433096154E-03
   115 -.28213665151002E-05
   116 -.34919549260176E-05
   117 0.63133214411178E-05
   118 -.66932903561075E-05
   119 0.10043307391485E-04
   120 0.58835570657616E-05
   121 -.33891545213137E-02
   122 0.19466835748978E-03
   123 -.53730127394020E-03
   124 0.26400059881131E-04
   125 -.28712957856330E-05
   126 0.20527453905418E-04
   127 0.56195334314328E-03
   128 -.47826028067469E-04
   129 0.46912404297722E-04
   130 -.91294625588416E-05
   131 0.73781897956227E-06
   132 0.83916435792794E-05
   133 0.11419441173617E-04
   134 -.64343845031138E-05
   135 0.80868362283027E-05
   136 -.35848928603702E-06
   137 0.13824068430341E-03
   138 -.24936712457700E-02
   139 -.25876778516612E-04
   140 0.14857897987853E-04
   141 -.60317927638897E-05
   142 -.11470787231023E-02
   143 -.18251667564256E-02
   144 0.19136037495409E-02
   145 -.12984341738781E-04
   146 -.89075556335947E-05
   147 0.21891897372376E-04
   148 -.30905000517000E-04
   149 0.29848654074772E-04
   150 0.17315187088192E-04
   151 -.29928118571912E-04
   152 0.58911509751283E-03
   153 0.56976380958451E-03
   154 -.55695467496868E-04
   155 0.79636961692084E-04
   156 -.12283603567683E-04
   157 -.13245774326156E-02
   158 0.83714481139245E-03
   159 -.78537984888648E-03
   160 0.28634151030719E-04
   161 -.38450487118556E-04
   162 0.98163360878378E-05
   163 -.59124714812309E-04
   164 0.21219149347561E-04
   165 0.42599415777326E-05
   166 0.37816252502932E-04
   167 -.10205372067765E-02
   168 0.19841304412082E-01
   169 -.12327074525543E-03
   170 -.11621622852747E-04
   171 0.63112715622243E-04
   172 0.53044148589140E-02
   173 0.95444891008941E-02
   174 -.30652067659639E-02
   175 -.84831672216369E-04
   176 0.13591575311373E-03
   177 -.51084080897362E-04
   178 0.55258278095285E-04
   179 0.20501777645148E-04
   180 -.38822751589824E-04
   181 -.25593381413550E-03
   182 -.31804047906278E-03
   183 -.21710450626787E-01
   184 0.12894451713574E-03
   185 0.10282694651672E-02
   186 0.55774734630827E-04
   187 -.82020084671095E-02
   188 -.52988501107774E-02
   189 0.45809650760953E-02
   190 -.46088501634613E-03
   191 0.89608989435927E-03
   192 -.43520487801313E-03
   193 0.44883687213858E-03
   194 0.84013582025967E-04
   195 -.87614308810774E-04
   196 0.98892481051938E+00
   197 -.44914845113697E-01
   198 0.55019493509972E-01
   199 0.16631144339793E-02
   200 -.23757432709219E-02
   201 -.16399691479755E-02
   202 0.73290609183061E-02
   203 -.81380939605114E-02
   204 -.62624085456641E-02
   205 -.10627106777368E-03
   206 -.26966654561242E-04
   207 0.13323772233492E-03
   208 -.32628708480819E-03
   209 0.20300036019340E-03
   210 0.16744962398478E-03
   211 -.25178775043972E-03
   212 -.77804383590297E-03
   213 -.22199864719927E-01
   214 -.12521578813644E-02
   215 -.56390973704145E-04
   216 0.83563627483773E-03
   217 0.14559418027788E-01
   218 0.99118170533453E-02
   219 -.71754512671935E-02
   220 0.57576345864251E-03
   221 -.57215389292449E-03
   222 -.36095657180245E-05
   223 -.13619228135052E-04
   224 -.74264823809035E-03
   225 -.56285551311427E-04
   226 0.76817740930321E-05
   227 -.12025556560118E-03
   228 -.76434145391485E-02
   229 -.44317285040951E-04
   230 0.22225492124808E-03
   231 0.35891752910950E-04
   232 0.37972401886504E-03
   233 0.18023274497510E-02
   234 0.24956328116072E-02
   235 0.84263011101352E-04
   236 -.74441719318888E-04
   237 -.98212917824650E-05
   238 0.43845314857273E-04
   239 -.99329016820552E-04
   240 -.13094892762736E-03
   241 0.73533330737666E-05
   242 -.57278711489228E-04
   243 0.53760979906609E-02
   244 0.62081942834084E-04
   245 -.18829221753686E-04
   246 -.13894786294743E-03
   247 -.74603624175204E-03
   248 -.62545645303098E-04
   249 0.45337315720725E-04
   250 -.82338967044298E-05
   251 0.23488243447021E-04
   252 -.15254346742591E-04
   253 -.47996204739385E-04
   254 0.56325104431845E-04
   255 0.20681422976233E-05
   256 -.74778073115615E-05
   257 0.14533878098148E-03
   258 0.25339925540636E-03
   259 -.21810120937062E-04
   260 0.11892800325903E-04
   261 -.98285557147077E-05
   262 -.30035565516203E-04
   263 -.36767688249406E-04
   264 -.16618315633953E-03
   265 -.31973094295399E-05
   266 -.11648572915307E-05
   267 0.43621667210707E-05
   268 -.15429242413913E-05
   269 -.68044417398306E-05
   270 -.23795420545741E-05
   271 0.10721955705528E-04
   272 -.16513516375885E-03
   273 -.50446552742924E-03
   274 0.35796304990424E-04
   275 -.39280051854377E-04
   276 0.85899706918787E-05
   277 0.46663652518050E-03
   278 0.10159076276674E-02
   279 0.53846806175493E-03
   280 0.21171173323035E-05
   281 0.42630935510955E-05
   282 -.63802108833990E-05
   283 -.12538995855443E-04
   284 -.68377442787238E-05
   285 -.68681780449930E-06
   286 -.55421818784192E-02
   287 0.28638635115417E-03
   288 -.10464597667979E-02
   289 -.38505393916758E-05
   290 0.41342347310132E-05
   291 -.52455190401987E-06
   292 0.16743992875335E-04
   293 0.17075527645471E-03
   294 0.35866208837353E-04
   295 0.43579185816964E-05
   296 -.34407559786078E-05
   297 -.91716260308855E-06
   298 -.22229933907627E-05
   299 0.26309554761028E-05
   300 -.35366859210424E-07
   301 -.10947989093437E-04
   302 0.22766161007761E-03
   303 -.13856755886939E-02
   304 -.37876228727901E-04
   305 0.65954638089768E-05
   306 -.33718516150403E-04
   307 0.85327247118481E-03
   308 -.13275796454051E-03
   309 0.22498478159791E-03
   310 -.31642237734305E-04
   311 0.13800084906017E-04
   312 0.17842152828289E-04
   313 -.10012767468592E-05
   314 -.60554709305714E-05
   315 -.12809268213528E-05
   316 0.47547424396962E-04
   317 0.46045487582359E-04
   318 0.26377341245367E-04
   319 0.47741931245712E-05
   320 -.93626788939537E-05
   321 -.25681034290076E-04
   322 0.59660892134328E-05
   323 0.36912408407799E-04
   324 -.14569191682072E-03
   325 -.89582901739018E-03
   326 -.38554609057649E-04
   327 -.30700985325173E-03
   328 0.10830586051463E-03
   329 0.24517773130767E-03
   330 0.31613787926941E-03
   331 0.13938516435268E-02
   332 0.71857089054165E-04
   333 -.18108983957593E-03
 Sym=     2a   
 Ene= -.14119735370762E+02
 Spin= Alpha
 Occup= 2.000000
     1 0.37853895286102E-05
     2 0.18898236938739E-04
     3 -.36497726275729E-02
     4 0.55228505784711E-04
     5 0.24793764889715E-04
     6 -.38636027885831E-04
     7 -.17734895234863E-02
     8 -.18161949950856E-02
     9 0.13443930963733E-02
    10 -.37945613883764E-04
    11 0.17131693244911E-05
    12 0.36232444559273E-04
    13 -.75557718729464E-05
    14 -.50062150789970E-05
    15 -.28899901637867E-05
    16 0.68773561413742E-05
    17 -.53676120033470E-04
    18 -.15927444847056E-02
    19 -.30714401882278E-04
    20 0.13514480445755E-04
    21 0.20638911504743E-04
    22 0.16942827229922E-02
    23 -.18407530489002E-02
    24 -.10399428089147E-02
    25 0.22081469113959E-04
    26 -.28859032478966E-04
    27 0.67775633650078E-05
    28 -.89306471665254E-05
    29 0.20537220973747E-05
    30 -.15829245800631E-04
    31 -.11762720924401E-04
    32 0.47520443790859E-03
    33 0.28630432159826E-02
    34 0.93422661333772E-04
    35 -.67597156871062E-04
    36 -.11423897762643E-03
    37 -.25875680148032E-02
    38 0.12804756921800E-02
    39 -.19687428704996E-02
    40 0.31585969281846E-04
    41 -.49228272383721E-04
    42 0.17642303101875E-04
    43 0.16170929412867E-04
    44 -.84698317507973E-04
    45 -.67106909934781E-04
    46 0.60482025891723E-04
    47 -.11168008911522E-02
    48 0.18189369499746E-01
    49 0.63356045997430E-04
    50 0.37909048751661E-04
    51 0.18412274362504E-04
    52 -.27910253180618E-04
    53 0.11572977232831E-01
    54 0.33578301430890E-02
    55 -.36963745515295E-04
    56 0.12656035908829E-04
    57 0.24307709606466E-04
    58 0.12580332291273E-03
    59 -.19175644465043E-04
    60 0.11711677115300E-03
    61 0.41103011646603E-05
    62 0.12706038786886E-03
    63 -.22054350129688E-01
    64 0.11303990741988E-03
    65 -.49137751309832E-04
    66 0.85095343124621E-04
    67 -.88864527166747E-02
    68 -.55321111509491E-03
    69 -.40702084144074E-02
    70 0.19920887764785E-04
    71 -.34616314334549E-04
    72 0.14695426569764E-04
    73 -.47326470099603E-05
    74 -.40422006953850E-04
    75 -.18878312677479E-04
    76 0.20146410446107E-04
    77 -.42007808412879E-03
    78 0.39623588991523E-02
    79 0.61857304648301E-04
    80 0.12357595402942E-05
    81 -.16558026332934E-04
    82 -.30485935487570E-02
    83 0.35090717169666E-03
    84 0.24492092837294E-02
    85 -.22811904260206E-04
    86 0.12688280950565E-04
    87 0.10123623309641E-04
    88 -.12669404099645E-04
    89 -.42209467909630E-06
    90 0.76601571074579E-05
    91 0.72386454635782E-05
    92 -.54334162837298E-04
    93 0.53400720681858E-02
    94 -.50323858624664E-04
    95 -.75791611654032E-04
    96 -.12436814841966E-03
    97 0.33934185500028E-03
    98 0.67355393296942E-03
    99 -.12038964893555E-03
   100 0.49985303606656E-04
   101 -.54588181196154E-04
   102 0.46028775894984E-05
   103 0.12279860493252E-05
   104 -.28482451972577E-04
   105 -.39101195900944E-04
   106 -.99967559276811E-05
   107 0.22754447398967E-03
   108 -.13244403054015E-02
   109 0.26869041924589E-04
   110 0.22148874909527E-04
   111 -.41324539044897E-04
   112 -.55908829896653E-03
   113 -.59332617641896E-03
   114 0.38051234386436E-03
   115 0.86434450548970E-06
   116 -.15349516459060E-04
   117 0.14485171953571E-04
   118 -.22173968138677E-04
   119 0.84748398058729E-05
   120 0.15968768788451E-04
   121 -.88479785387350E-02
   122 0.43674015617298E-03
   123 -.12326310962573E-02
   124 0.29906962471623E-05
   125 -.69409630535116E-05
   126 0.62405663687709E-05