 operating system is UNIX !

 force (c-17-27.gp.local) : TURBOMOLE V7.2 ( 21454 ) 4 Oct 2017 at 12:24:43
 Copyright (C) 2017 TURBOMOLE GmbH, Karlsruhe


    2018-03-04 02:07:54.814 



                             T U R B O M O L E   

                          a o f o r c e - program

                        using direct algorithms for

                       SCF level calculations of
                         * harmonic force constants
                         * hyperpolarizabilities
                         * IR and RAMAN intensities
                         * VCD intensities

                       DFT level calculations of
                         * harmonic force constants
                         * IR intensities
                                                   
       Stephan Boecker, Peter Deglmann, Filipp Furche and Marco Haeser
                          Quantum Chemistry Group
                          Universitaet  Karlsruhe
                                   Germany

 
 
 
 
     References :
 
       RI-J implementation:
         Peter Deglmann, Klaus May, Filipp Furche, Reinhart Ahlrichs
                 Chem. Phys. Lett. 384:103 (2004)
 
       Efficiency, technical details:
         Peter Deglmann, Filipp Furche, Reinhart Ahlrichs
                 Chem. Phys. Lett. 362:511 (2002)
 
       Search of lowest eigenvalues by iterative diagonalization:
         Peter Deglmann, Filipp Furche
                 J. Chem. Phys. 117:9535 (2002)
 
       Vibrational circular dichroism implementation:
        Kevin Reiter, Michael Kuehn, Florian Weigend
                 J. Chem. Phys. 146:054102 (2017)  
 
 


              +--------------------------------------------------+
              | Atomic coordinate, charge and isotop information |
              +--------------------------------------------------+

                    atomic coordinates            atom    charge  isotop
         -2.18043278    0.08422080    1.93898609    cl    17.000     0
          3.63239143    0.18454159    1.80684543    o      8.000     0
          1.16033502   -3.32461804   -1.75001535    o      8.000     0
         -1.63253763    0.94268562   -4.19735159    o      8.000     0
          3.75724327   -1.02374475    3.15417107    h      1.000     0
         -0.54578236   -0.51893851   -4.05543299    h      1.000     0
          2.51026375   -2.29880790   -1.06161859    h      1.000     0
         -2.13960556    1.16478453   -2.44626563    h      1.000     0
         -0.23483833   -2.80571353   -0.65757907    h      1.000     0
          1.80083879    0.55733488    1.80375752    h      1.000     0
 
       center of nuclear mass  :   -0.24081390   -0.41492514   -0.00884881
       center of nuclear charge:   -0.14122824   -0.44835018   -0.07285907

              +--------------------------------------------------+
              |               basis set information              |
              +--------------------------------------------------+

              we will work with the 1s 3p 5d 7f 9g ... basis set
              ...i.e. with spherical basis functions...

   type   atoms  prim   cont   basis
   ---------------------------------------------------------------------------
    cl       1     63     37   def2-TZVP   [5s5p2d1f|14s9p3d1f]
    o        3     46     31   def2-TZVP   [5s3p2d1f|11s6p2d1f]
    h        6      8      6   def2-TZVP   [3s1p|5s1p]
   ---------------------------------------------------------------------------
   total:   10    249    166
   ---------------------------------------------------------------------------

   total number of primitive shells          :   53
   total number of contracted shells         :   70
   total number of cartesian basis functions :  186
   total number of SCF-basis functions       :  166

 
             FOUND RI-J FLAG !
 

 NOTE: THIS IS A PRELIMINARY IMPLEMENTATION. THE RI APPROXIMATION IS
       PRESENTLY USED FOR CPKS CONTRIBUTIONS TO THE HESSIAN ONLY! SEE
       MANUAL FOR FURTHER DETAILS.

  
 AUXILIARY BASIS SET information:

              we will work with the 1s 3p 5d 7f 9g ... basis set
              ...i.e. with spherical basis functions...

   type   atoms  prim   cont   basis
   ---------------------------------------------------------------------------
    cl       1     77     51   def2-TZVP   [8s4p3d1f1g|14s5p5d2f1g]
    o        3     70     49   def2-TZVP   [6s4p3d1f1g|12s5p4d2f1g]
    h        6     16     11   def2-TZVP   [3s1p1d|5s2p1d]
   ---------------------------------------------------------------------------
   total:   10    383    264
   ---------------------------------------------------------------------------

   total number of primitive shells          :   59
   total number of contracted shells         :   92
   total number of cartesian basis functions :  318
   total number of SCF-basis functions       :  264


 symmetry group of the molecule :   c1 

 the group has the following generators :
   c1(z)

    1 symmetry operations found

 there are 1 real representations :   a   

 maximum number of shells which are related by symmetry :  1


 determining totally symmetric integral contributions 
    - equivalent to irreducible tensor elements - 
 which can be formed within each triple of representations :

             representation triple      contributions

              a     a     a               1

    mo occupation :
   irrep   mo's   occupied
    a      166       24
 
 number of basis functions   :                    166
 number of occupied orbitals :                     24
 
  MOs are in ASCII format !


 reading orbital data $scfmo  from file mos
 orbital characterization : scfconv=7
 time elapsed for calculating density matrices :   0.002 sec

 number of non-frozen orbitals          :   166
 number of non-frozen occupied orbitals :    24
 Blocking parameters 
 shells:
    index      start shell   last shell  start bf    last bf    #bf 
       1             1          70             1        186    186
  
           ----------------------
               RI - INFORMATION
           ----------------------

 biggest AO integral is expected to be    10.437462037

 Threshold for integral neglect (rithr2):   0.13E-10
 Threshold for integral neglect (rithr1):   0.13E-10

 Contributions to RI integral batches: 
  neglected integral batches:                   282
  direct contribution:                            0
  memory contribution:                  2203
 Core memory available (ricore):              3000 MiB
 Core memory needed for (P|Q) and Cholesky:      1 MiB
 Core memory used for integrals:                38 MiB
 
 ****************************************
 Memory allocated for RIDFT: 39 MiB
 ****************************************
 
  
           ------------------
           density functional
           ------------------
 PBE0 hybrid functional
 exchange:    3/4 (LDA+PBE) + 1/4 HF
 correlation: LDA (PW) + PBE

 iterations will be done with small grid
  
 spherical integration : Lebedev's spherical grid
 spherical gridsize    :                     3
    i.e. gridpoints    :                   302
 value for diffuse not defined
 radial integration    : Chebyshev 2nd kind (scaling 3)
 radial gridsize       :                     3
 integration cells     :                    10
 partition function    : becke
 partition sharpness   :                     3
  
 
 Derivatives of quadrature weights will be included
 
          Overall gridpoints after grid construction =         47659
 Ordering of quadrature gridpoints disabled.
 
 
 
 
 OCCUPIED-OCCUPIED TENSOR SPACES :

          IRREP   tensor space dimension   number of roots

           a               576                  24
 
 OCCUPIED-VIRTUAL TENSOR SPACES :

          IRREP   tensor space dimension   number of roots

           a              3408                  24
 
 
 
 
 CONSTRUCTING integral bounds

 setting up bound for integral derivative estimation

 increment for numerical differentiation : 0.00050000
 
 machine precision:   2.220446049250313E-016

 integral neglect threshold       :  0.10E-09
 integral storage threshold THIZE :  0.10E-04
 integral storage threshold THIME :         5

 
 
 
 PREPARING NUMERICAL INTEGRATION
 
 Remaining core memory for DFT =                  4976 MB
 
 Memory needed per atom    =                   407 KiB
 
     i. e.                    10 atoms per loop

 Calculating ground state density on molecular grid

 Integral of ground state density: N =   48.00008339497365    


 
 
 CONSTRUCTING first deriv. of <mu|x,y,z|nu> -> Dip. deriv.
  dipole integral derivatives will be neglected if
  expon. factor <0.268817E-11
      ...terminated. cpu:       0.01       wall:       0.01
 
 
 
 
 CONSTRUCTING first deriv. of  <mu|nu>
                               <mu|h|nu>    -> RHS
              second deriv. of <mu|nu>      -> Hessian
                               <mu|h|nu>    -> Hessian
                               nucl. rep.   -> Hessian
     integrals are neglected if expon. factor <  2.688172043010752E-013
  _________________________________
 |                                 |
 |         DFTD3 V3.1 Rev 0        |
 | S.Grimme, University Bonn       |
 |         June 2014               |
 |   see standalone version        |
 |       dftd3 -h for options      |
 |_________________________________|
 
 Please cite DFT-D3 work done with this code as:
 S. Grimme, J. Antony, S. Ehrlich and H. Krieg,
 J. Chem. Phys, 132 (2010), 154104.
 If used with BJ-damping cite also
 S. Grimme, S. Ehrlich and L. Goerigk,
 J. Comput. Chem. 32 (2011), 1456-1465
 For DFT-D2 the reference is
 S. Grimme, J. Comput. Chem., 27 (2006), 1787-1799
 
      ...terminated. cpu:       0.27       wall:       0.31
 
 
 
 
 CONSTRUCTING second deriv. of 2e energy    -> Hessian
   treating Coulomb (and exchange) contribution
     integrals will be neglected if total contribution <  2.688172043010752E-009
      ...terminated. cpu:      20.36       wall:      20.36
   treating exchange-correlation contribution
      ...terminated. cpu:      29.64       wall:      29.66
 
 
 
 
 CONSTRUCTING S(i,j)xi
      ...terminated. cpu:       0.00       wall:       0.03
 
 
 
 
 CONSTRUCTING <i|x,y,z|j>*S(i,j)xi          -> Dip. deriv.
      ...terminated. cpu:       0.01       wall:       0.01
 
 
 
 
 CONSTRUCTING epsilon(i)*S(i,j)xi*S(i,j)chi -> Hessian
      ...terminated. cpu:       0.00       wall:       0.00
 
 
 
 
 CONSTRUCTING G(a,i)[S(k,l)xi]              -> RHS
              G(i,j)[S(k,l)xi]*S(i,j)chi    -> Hessian
 
         Maximum core memory set to                   5000 MB
         This corresponds to                 18459 vectors in CAO basis
      ...terminated. cpu:      29.48       wall:      29.53
 
 
 
 
 CONSTRUCTING G(mu,nu)[D(kap,lam)]xi
 
          Maximum core memory set to                   5000 MB
          Atoms treated simultaneously :                    10
      ...terminated. cpu:      32.76       wall:      32.90
 
 
 
 
 CONSTRUCTING F(a,i)xi                      -> RHS
              F(i,j)xi*S(i,j)chi            -> Hessian
 
        Maximum core memory set to                  5000 MB
        This corresponds to                 31509 vectors in CAO basis
      ...terminated. cpu:       0.04       wall:       0.09
 
 
 
 
 CONSTRUCTING epsilon(i)*S(a,i)xi           -> RHS
      ...terminated. cpu:       0.02       wall:       0.04
 
 
 
 
 SOLVING CPHF equations
 
 Residuum convergence criterium   :  1.000000000000000E-005
 
 Maximum number of Davidson iterations set to                    25
  Switching to small grid
        preparing numerical integration ....
          Overall gridpoints after grid construction =         12625

 Calculating ground state density on molecular grid

 Integral of ground state density: N =   47.99992715950616    




                       Nonorthonormal Krylov Space Iteration


 total number of roots to be determined:  24


 maximum core memory set to  5000 MB,
 corresponding to    18295 vectors in CAO basis


 maximum number of simultaneously treated vectors (including degeneracy):       24


 Iteration IRREP Converged      Max. Euclidean
                 roots          residual norm

    1       a        0        1.151261300610987D-01
 
    2       a        0        1.144384599333114D-02
 
    3       a        0        9.515923636443618D-04
 
    4       a        0        6.180434809213795D-05
 
    5       a       24        3.949865405100736D-06
 

 converged!

  Switching to fine grid
        preparing numerical integration ....
          Overall gridpoints after grid construction =         47659

 Calculating ground state density on molecular grid

 Integral of ground state density: N =   48.00008339497359    



 Iteration IRREP Converged      Max. Euclidean
                 roots          residual norm

    6       a        0        1.415811416467600D-04
 

 NOTE: Residual norms are larger than 1.00D-05 due to mgrid option!

      ...terminated. cpu:      89.53       wall:      92.02
 
 
 
 
 CONSTRUCTING <a|x,y,z|i>*U(a,i)xi          -> Dip. deriv.
      ...terminated. cpu:       0.02       wall:       0.02
 
 
 
 
 CONSTRUCTING RHS(a,i)xi*U(a,i)chi          -> Hessian
      ...terminated. cpu:       0.00       wall:       0.02
 
 
 
 

            -----------------------
            permanent dipole moment
            -----------------------

                                   x                y                z
    electronic part       :    7.7163674554    20.9805189084     4.0616174046
     nuclear   part       :   -6.6377272440   -21.0724583574    -3.4243763284
     total                :    1.0786402114    -0.0919394491     0.6372410763

 with reference to the point :   0.0000000        0.0000000        0.0000000
 (given in atomic units)
    | dipole |       :    3.1929208418  debye

   ***  dipole moment & cartesian dipole gradients written onto
        $dipole, $dipgrad,  file=<dipgrad>  ***

             -----------------------------------
             rotational and vibrational analysis
             -----------------------------------


            ==============================================================
            ATOMIC WEIGHTS (average over the natural occurance of isotops)
            ==============================================================
            ('*' denotes special isotop !)
              1     cl               35.45300
              2     o                15.99940
              3     o                15.99940
              4     o                15.99940
              5     h                 1.00797
              6     h                 1.00797
              7     h                 1.00797
              8     h                 1.00797
              9     h                 1.00797
             10     h                 1.00797

          -------------------------------------------------
          CARTESIAN FORCE CONSTANT MATRIX (hartree/bohr**2)
         (translational & rotational space projected out)
          -------------------------------------------------

   ATOM              1 cl                          2 o 
                  dx        dy        dz        dx        dy        dz
   1 cl    dx  0.0255538
           dy -0.0032616 0.0063181
           dz -0.0055304 0.0027453 0.0151434
   2 o     dx -0.0279643-0.0020950-0.0010323 0.4587408
           dy  0.0017462 0.0059185 0.0007902-0.0950382 0.2809435
           dz  0.0007705 0.0007193 0.0056134 0.0141668-0.2732565 0.3293304
   3 o     dx -0.0015870 0.0086392 0.0084252 0.0029205-0.0062266-0.0061783
           dy  0.0054846-0.0021829-0.0069553-0.0039316-0.0014325-0.0059880
           dz  0.0072730-0.0088413-0.0032013-0.0043354-0.0073327-0.0042269
   4 o     dx  0.0041206-0.0006755 0.0020162 0.0008564-0.0001698-0.0012064
           dy -0.0002447 0.0036810 0.0013802 0.0003074 0.0012910 0.0004879
           dz  0.0000799 0.0030851-0.0125992-0.0020572 0.0002109-0.0000529
   5 h     dx  0.0005622-0.0014768 0.0017018-0.0416941 0.0079295 0.0008752
           dy -0.0007573-0.0004647-0.0008073 0.0425879-0.2369743 0.2549194
           dz  0.0009484-0.0006217-0.0004303-0.0385457 0.2616896-0.2952668
   6 h     dx -0.0012415 0.0004198-0.0013729-0.0004733 0.0004583 0.0008882
           dy  0.0003561-0.0018146 0.0011744 0.0000641-0.0013796-0.0005568
           dz -0.0011831 0.0011991 0.0010055 0.0005634 0.0005163 0.0007603
   7 h     dx  0.0006655-0.0013620-0.0016832-0.0057080 0.0015229 0.0013527
           dy -0.0012958-0.0017195-0.0004312 0.0006334-0.0016912 0.0047138
           dz -0.0021169-0.0005824-0.0015485 0.0005065 0.0072222 0.0030755
   8 h     dx -0.0044627 0.0002020 0.0001184-0.0004774-0.0001072 0.0007232
           dy -0.0001723-0.0034125-0.0017508-0.0005811-0.0004483-0.0000660
           dz  0.0017212-0.0031553 0.0035569 0.0023730-0.0004179-0.0006048
   9 h     dx -0.0037083-0.0044837-0.0029866-0.0009182 0.0032359 0.0025188
           dy -0.0016884 0.0002556 0.0037870 0.0024093-0.0013316-0.0005843
           dz -0.0017964 0.0053632-0.0010991 0.0024281-0.0006716-0.0016342
  10 h     dx  0.0080616 0.0040937 0.0003438-0.3852824 0.0866489-0.0139106
           dy -0.0001667-0.0065790 0.0000676 0.0556438-0.0448954 0.0196113
           dz -0.0001662 0.0000888-0.0064408 0.0259328 0.0112495-0.0369940

   ATOM              3 o                           4 o 
                  dx        dy        dz        dx        dy        dz
   3 o     dx  0.5651407
           dy  0.1062294 0.2382049
           dz -0.0700676 0.2045303 0.2796363
   4 o     dx -0.0000442 0.0061422-0.0048001 0.2371985
           dy  0.0055233-0.0038168 0.0061380-0.2662668 0.3628167
           dz -0.0033864 0.0046854 0.0010283-0.0975156 0.0068136 0.4946797
   5 h     dx -0.0003421 0.0000819 0.0009344-0.0000739-0.0000691 0.0003684
           dy  0.0001958-0.0016195 0.0005850 0.0000794-0.0001343-0.0000894
           dz  0.0011059-0.0009405 0.0017018 0.0000404-0.0002872 0.0000583
   6 h     dx -0.0035158-0.0035548 0.0039307-0.1819380 0.2266371-0.0013363
           dy -0.0028998-0.0014468-0.0044883 0.2350015-0.3206952 0.0117177
           dz  0.0031743-0.0051851 0.0011260-0.0336204 0.0540091-0.0483845
   7 h     dx -0.2829856-0.1724055-0.0987952 0.0011069-0.0008720 0.0008064
           dy -0.2062092-0.1679669-0.1041241-0.0007658-0.0019549-0.0002947
           dz -0.1363352-0.1155686-0.0956055 0.0016634-0.0001292-0.0003652
   8 h     dx  0.0002618-0.0018612 0.0005243-0.0571176 0.0345484 0.0996573
           dy -0.0014729 0.0008376-0.0001607 0.0265798-0.0401636-0.0237290
           dz  0.0000841 0.0008260-0.0039038 0.1311446-0.0652662-0.4347066
   9 h     dx -0.2739376 0.0637974 0.1656404-0.0025079 0.0004486 0.0009613
           dy  0.0953524-0.0613654-0.0883819 0.0001173-0.0002343-0.0023690
           dz  0.2031238-0.0773517-0.1766301 0.0010348-0.0034072-0.0000141
  10 h     dx -0.0059109 0.0000175-0.0003046-0.0016008-0.0000122 0.0024221
           dy  0.0008684 0.0007882 0.0020757-0.0000423-0.0007896-0.0000306
           dz  0.0000542 0.0019476 0.0000750 0.0012431 0.0002612 0.0003563

   ATOM              5 h                           6 h 
                  dx        dy        dz        dx        dy        dz
   5 h     dx  0.0466666
           dy -0.0398667 0.2451961
           dz  0.0344527-0.2666759 0.3013684
   6 h     dx  0.0000011-0.0000677-0.0001032 0.1937617
           dy  0.0000673 0.0002080 0.0003877-0.2403943 0.3293828
           dz -0.0001084-0.0000524-0.0001694 0.0018585-0.0140755 0.0544002
   7 h     dx  0.0005106-0.0000632-0.0008505-0.0016799 0.0008341-0.0019176
           dy -0.0000901 0.0020353 0.0015723 0.0012005 0.0025657 0.0003296
           dz -0.0008662-0.0012242-0.0034339-0.0030346-0.0002703-0.0012731
   8 h     dx  0.0001548-0.0000349 0.0000266-0.0090766 0.0085739 0.0310774
           dy  0.0001045 0.0000027 0.0000834 0.0166611-0.0082926-0.0394663
           dz -0.0003832 0.0001461-0.0000149-0.0007897 0.0025560-0.0021338
   9 h     dx -0.0002113-0.0005894-0.0009242 0.0030814-0.0011286 0.0003387
           dy -0.0000882 0.0004748 0.0003329-0.0010733 0.0008798 0.0030833
           dz -0.0007374-0.0000981-0.0001575 0.0004344 0.0038480-0.0046960
  10 h     dx -0.0055739-0.0014838 0.0038496 0.0010808-0.0004743-0.0001827
           dy  0.0334076-0.0087241 0.0044595-0.0002867 0.0005927-0.0003580
           dz -0.0362373 0.0132970-0.0036556-0.0004752-0.0002930-0.0006353

   ATOM              7 h                           8 h 
                  dx        dy        dz        dx        dy        dz
   7 h     dx  0.3206900
           dy  0.1942940 0.1635814
           dz  0.1124351 0.1011560 0.0899750
   8 h     dx -0.0006177 0.0006608-0.0003857 0.0700373
           dy  0.0003826 0.0002389 0.0001789-0.0434022 0.0525883
           dz  0.0000340 0.0002556 0.0009943-0.1292868 0.0632661 0.4337396
   9 h     dx -0.0355423 0.0083010 0.0239896 0.0007397 0.0013291-0.0016899
           dy -0.0241273 0.0069425 0.0127798 0.0011157-0.0018157 0.0017221
           dz -0.0140899 0.0004865 0.0094306-0.0011094 0.0018246 0.0028141
  10 h     dx  0.0035604 0.0032712 0.0041441 0.0005584 0.0005715-0.0032074
           dy  0.0017964-0.0020313-0.0035622 0.0003045 0.0004652 0.0000673
           dz  0.0027083-0.0036638-0.0012491-0.0013453-0.0001803 0.0002590

   ATOM              9 h                          10 h 
                  dx        dy        dz        dx        dy        dz
   9 h     dx  0.3093588
           dy -0.0685833 0.0571171
           dz -0.1860784 0.0710866 0.1717507
  10 h     dx  0.0036456-0.0034343-0.0032096 0.3814611
           dy -0.0023270-0.0009229-0.0010802-0.0891980 0.0620961
           dz -0.0017696-0.0014565 0.0002356 0.0100554-0.0212504 0.0480488
 

   *** projected hessian written onto $hessian (projected), file=<hessian> ***

 dipole moment in principle axis system (a.u.) :
     0.6714649333     0.1736877345     1.0473591416
 norm :   1.25618221495310     

 rotational constants b for rotations around axis of inertia
 and optical intensities for (1 <-- 0) transition

   b   :     0.0824573351     0.0566546738     0.0947302390   (cm**(-1))
   b   :        2472.0087        1698.4644        2839.9411     (MHz)
  int. :     0.4508651566     0.0301674291     1.0969611715     (a.u.)

   x   :     0.8385014832     0.3231927509     0.4387045799
   y   :    -0.3515541753     0.9360016955    -0.0176206627
   z   :    -0.4163231011    -0.1394534750     0.8984585710

   ***  normal modes written onto $vibrational normal modes, file=<vib_normal_modes>  ***

 keyword $vibrational reduced masses missing in file <control>


   ***  vibrational spectroscopic data written onto$vibrational spectrum   
        file=<vibspectrum>  ***

          ---------------------------------------------------
          NORMAL MODES and VIBRATIONAL FREQUENCIES (cm**(-1))
          ---------------------------------------------------

 imaginary wave numbers indicate a negative curvature of the energy surface.
 zero frequency modes have no physical meaning except being generators of
 translations and rotations. each vibrational normal mode - given in terms of
 cartesian displacement vectors of all atoms - has been normalized to unity.
 to obtain mass-weigthed normal coordinates in a.u. divide the tabulated
 modes by sqrt(reduced mass * 1822.88853).
 band intensities or cross sections refer to independent non-degenerate normal
 modes, that is, the intensities of degenerate modes have yet to be added.
 dDIP/dQ is the normal mode derivative of the dipole moment.


       mode               1        2        3        4        5        6

     frequency           0.00     0.00     0.00     0.00     0.00     0.00

     symmetry                                                             

        IR                -        -        -        -        -        - 
|dDIP/dQ|   (a.u.)     0.0000   0.0000   0.0000   0.0000   0.0000   0.0000
intensity (km/mol)       0.00     0.00     0.00     0.00     0.00     0.00
intensity (  %   )       0.00     0.00     0.00     0.00     0.00     0.00
 
       RAMAN              -        -        -        -        -        - 
 
  1   cl          x  -0.09067 -0.01072  0.01766  0.18029  0.29926  0.05824
                  y  -0.07799 -0.10347  0.55248 -0.04130  0.04154 -0.03260
                  z   0.15290 -0.10855 -0.03369 -0.06305  0.15711  0.24774
  2   o           x  -0.08399 -0.00583  0.03107  0.18679  0.29179  0.05427
                  y  -0.09998 -0.31524 -0.12594 -0.27713  0.14859 -0.27700
                  z   0.42987 -0.05420  0.04136  0.04381 -0.09013 -0.11224
  3   o           x   0.06613 -0.11126 -0.32638  0.11334  0.20087 -0.31313
                  y   0.06502  0.05233  0.00429 -0.26743  0.21229 -0.18367
                  z   0.16275 -0.34357  0.16131  0.08529 -0.08978  0.05104
  4   o           x   0.20125  0.07129  0.20086  0.33008  0.01984 -0.28543
                  y   0.18375  0.34693  0.22025 -0.21708  0.23677 -0.07362
                  z   0.21558 -0.03822 -0.06381 -0.07426  0.15947  0.21132
  5   h           x  -0.15294 -0.06277 -0.12716  0.11310  0.37122  0.08692
                  y  -0.15862 -0.42349 -0.08136 -0.24834  0.11007 -0.27828
                  z   0.38368 -0.14600  0.09600  0.07646 -0.13203 -0.11641
  6   h           x   0.18763  0.01435  0.02979  0.26895  0.05187 -0.33801
                  y   0.17246  0.29454  0.10072 -0.25699  0.25174 -0.11883
                  z   0.20359 -0.14176  0.01508 -0.01716  0.06850  0.14837
  7   h           x   0.03873 -0.07762 -0.21708  0.14142  0.21232 -0.22747
                  y   0.02893 -0.05208 -0.12176 -0.30417  0.21541 -0.23832
                  z   0.27026 -0.25394  0.13482  0.08497 -0.11689 -0.03551
  8   h           x   0.12017  0.06572  0.20263  0.30602  0.09130 -0.16775
                  y   0.11073  0.23179  0.35564 -0.15289  0.17484 -0.04719
                  z   0.20136 -0.02522 -0.08047 -0.08937  0.18802  0.24204
  9   h           x   0.01736 -0.10021 -0.28126  0.11354  0.23870 -0.22375
                  y   0.02460  0.02169  0.21359 -0.18423  0.15453 -0.12190
                  z   0.11966 -0.31490  0.11951  0.04603 -0.01403  0.13584
 10   h           x  -0.08207  0.00843  0.07425  0.20176  0.28505  0.06973
                  y  -0.09112 -0.24508  0.08586 -0.20394  0.11621 -0.20012
                  z   0.36002 -0.04026  0.00000  0.00000  0.00000  0.00000

reduced mass(g/mol)     7.668    7.219   15.230    7.823    9.361    8.646


       mode               7        8        9       10       11       12

     frequency          40.05    98.92   109.58   172.74   178.69   217.56

     symmetry            a        a        a        a        a        a   

        IR               YES      YES      YES      YES      YES      YES
|dDIP/dQ|   (a.u.)     0.0005   0.0004   0.0014   0.0020   0.0021   0.0041
intensity (km/mol)       0.41     0.34     3.54     7.39     7.83    29.28
intensity (  %   )       0.06     0.05     0.49     1.03     1.09     4.09
 
       RAMAN             YES      YES      YES      YES      YES      YES
 
  1   cl          x  -0.07597  0.00081  0.10825 -0.03145  0.10309  0.25195
                  y  -0.08334 -0.05622 -0.15773 -0.05529  0.04370 -0.05811
                  z   0.06199  0.23664 -0.12137  0.07575  0.11815 -0.10237
  2   o           x  -0.09401 -0.02406  0.22361  0.03268 -0.22471 -0.39617
                  y   0.19819  0.01061  0.28545 -0.12192  0.10678 -0.07646
                  z  -0.37513 -0.00977  0.25610 -0.13010  0.12349 -0.06519
  3   o           x  -0.10768 -0.23770 -0.40186  0.14905  0.06154 -0.08350
                  y  -0.19621  0.32733 -0.10575 -0.01904 -0.28104  0.19081
                  z   0.09421 -0.13932  0.12979  0.33682 -0.19865  0.18086
  4   o           x   0.36037  0.25992 -0.03975 -0.11847 -0.04029 -0.01346
                  y   0.16144 -0.22559  0.14039  0.23578  0.08585 -0.01569
                  z   0.14959 -0.34284 -0.11713 -0.35838 -0.16556  0.05955
  5   h           x   0.06328  0.07568  0.10723  0.13697 -0.17460 -0.36234
                  y   0.41648 -0.05263  0.09746 -0.09451  0.36282  0.17719
                  z  -0.19386 -0.07588  0.09822 -0.11473  0.34689  0.15830
  6   h           x   0.17450  0.17290 -0.27299 -0.05536 -0.00206  0.08408
                  y   0.02193 -0.27174 -0.03362  0.28982  0.10940  0.06229
                  z   0.13472 -0.01008 -0.12443 -0.30207 -0.26176  0.18091
  7   h           x  -0.12140 -0.16761 -0.18888  0.08576 -0.00329 -0.14585
                  y  -0.13981  0.22839 -0.19224  0.06532 -0.29532  0.14081
                  z   0.04234 -0.12593 -0.19452  0.34134 -0.04468  0.39838
  8   h           x   0.25694  0.10511  0.00019 -0.16262  0.04974 -0.02850
                  y   0.10918  0.05459  0.18512  0.23133  0.05104  0.06222
                  z   0.12639 -0.43710 -0.11308 -0.37433 -0.13541  0.04116
  9   h           x  -0.10856 -0.15295 -0.21216  0.06412 -0.00476 -0.16498
                  y  -0.18503  0.25130  0.21704  0.05235 -0.34589  0.11490
                  z   0.08531  0.01760  0.25024  0.19219 -0.27021  0.11189
 10   h           x  -0.11118 -0.03231  0.21949  0.03341 -0.26131 -0.41668
                  y   0.11470 -0.01595  0.19321 -0.10478 -0.01581 -0.07964
                  z  -0.29050  0.11646  0.08667  0.00040  0.03034 -0.07111

reduced mass(g/mol)     7.967    9.340    9.096    6.846    5.455    7.376


       mode              13       14       15       16       17       18

     frequency         234.06   326.62   396.18   437.05   458.85   565.29

     symmetry            a        a        a        a        a        a   

        IR               YES      YES      YES      YES      YES      YES
|dDIP/dQ|   (a.u.)     0.0077   0.0048   0.0016   0.0045   0.0049   0.0048
intensity (km/mol)     105.97    40.61     4.44    36.24    42.45    40.15
intensity (  %   )      14.82     5.68     0.62     5.07     5.94     5.61
 
       RAMAN             YES      YES      YES      YES      YES      YES
 
  1   cl          x   0.01468 -0.00035  0.00370  0.00226  0.00208 -0.00581
                  y   0.00619 -0.00682 -0.00053  0.00087  0.00482 -0.00489
                  z   0.00583  0.01355  0.00154 -0.00462  0.00274  0.00167
  2   o           x  -0.04615  0.02572  0.02706  0.00615 -0.03093 -0.00238
                  y   0.03875 -0.01319  0.02212  0.00995  0.01339  0.02073
                  z   0.01672 -0.00058  0.00490  0.00501 -0.00118 -0.00251
  3   o           x   0.01808  0.00273 -0.01195  0.00828 -0.02224  0.00640
                  y  -0.03166  0.00593 -0.00195 -0.01975 -0.01153  0.00204
                  z   0.01667 -0.00170 -0.00171 -0.01689  0.00425 -0.00536
  4   o           x   0.01330  0.00115 -0.00861  0.00551  0.00087 -0.03063
                  y   0.00577  0.00227 -0.00784 -0.01095 -0.00099 -0.02882
                  z  -0.00047 -0.00459  0.00131 -0.01052  0.00400 -0.00118
  5   h           x  -0.16360 -0.73269 -0.06525  0.01043  0.14343 -0.00595
                  y  -0.64142 -0.02224 -0.17370 -0.08014 -0.11474 -0.15721
                  z  -0.58031  0.06714 -0.15977 -0.07574 -0.13407 -0.16004
  6   h           x  -0.14670  0.01981  0.47056  0.08973  0.36658  0.06699
                  y  -0.11687  0.01737  0.34170  0.10852  0.27191  0.05017
                  z  -0.06046  0.01540 -0.11413  0.70143 -0.00782  0.06137
  7   h           x  -0.05925  0.13082 -0.25978 -0.02638  0.34164  0.14008
                  y   0.26190 -0.15117  0.06581 -0.01779 -0.34878 -0.39458
                  z  -0.27078 -0.02835  0.40229  0.05565 -0.23173  0.31926
  8   h           x   0.07431 -0.08430 -0.11978 -0.46549 -0.25772  0.51676
                  y   0.02111 -0.04198 -0.32301  0.42864 -0.28731  0.47398
                  z   0.01625 -0.02403  0.01333 -0.21555 -0.03401  0.09085
  9   h           x   0.04775  0.08296 -0.30291 -0.00791  0.22756 -0.08279
                  y  -0.03809  0.11620 -0.19890 -0.14901  0.44327  0.29773
                  z   0.05950  0.05610 -0.29717  0.02515  0.12961 -0.25129
 10   h           x  -0.03434  0.12575  0.04392  0.00343 -0.06449 -0.00837
                  y   0.09143  0.40099  0.11099  0.00855 -0.14785 -0.00204
                  z   0.10839 -0.45358  0.02987  0.02706  0.06924  0.02457

reduced mass(g/mol)     1.104    1.030    1.031    1.026    1.036    1.044


       mode              19       20       21       22       23       24

     frequency         699.20   769.53   822.60  1666.63  1704.61  1714.06

     symmetry            a        a        a        a        a        a   

        IR               YES      YES      YES      YES      YES      YES
|dDIP/dQ|   (a.u.)     0.0083   0.0117   0.0093   0.0075   0.0087   0.0116
intensity (km/mol)     122.90   241.46   152.78    99.92   135.56   239.42
intensity (  %   )      17.19    33.76    21.36    13.97    18.96    33.48
 
       RAMAN             YES      YES      YES      YES      YES      YES
 
  1   cl          x  -0.00424  0.00112 -0.00094  0.00057  0.00105  0.00115
                  y  -0.00163 -0.00439  0.00398 -0.00093 -0.00004 -0.00061
                  z  -0.00260  0.00352  0.00540  0.00144  0.00046 -0.00085
  2   o           x   0.00308 -0.00137  0.01864 -0.04834 -0.00825 -0.00337
                  y  -0.01225 -0.02198  0.02810 -0.02526 -0.00467 -0.00260
                  z  -0.00072 -0.00795  0.02720  0.04176  0.00297  0.00020
  3   o           x  -0.01713  0.01490  0.00458  0.00081  0.00056 -0.00216
                  y  -0.00420 -0.04769  0.00000 -0.00549  0.03710  0.02503
                  z   0.00506  0.02741  0.01622 -0.00534  0.04546  0.02542
  4   o           x  -0.03789  0.00022 -0.00010 -0.00029 -0.00738  0.01549
                  y  -0.02346 -0.01159 -0.00417 -0.00138  0.01803 -0.03164
                  z  -0.01054  0.00575  0.00221  0.00077 -0.02740  0.04822
  5   h           x  -0.04782 -0.02530 -0.06078  0.61414  0.07014  0.02636
                  y   0.08255  0.14683 -0.05670 -0.04493  0.00297  0.00331
                  z   0.08866  0.14494 -0.04006 -0.10626 -0.00734 -0.00147
  6   h           x   0.47337  0.08051  0.02825  0.00940 -0.06507  0.08736
                  y   0.36116  0.05800  0.02074  0.00550 -0.02534  0.02955
                  z   0.04242  0.06511  0.00779 -0.01446  0.33602 -0.60145
  7   h           x  -0.03321 -0.14364 -0.05319 -0.05338  0.36452  0.20847
                  y   0.24751  0.41280  0.13892  0.04220 -0.23326 -0.14524
                  z  -0.34584 -0.34370 -0.08705  0.04275 -0.41225 -0.22717
  8   h           x   0.42494 -0.04161  0.00106  0.00069  0.17903 -0.34227
                  y   0.22962  0.10546  0.03861  0.02115 -0.27530  0.48505
                  z   0.09371 -0.02371 -0.00395 -0.00091  0.10288 -0.18177
  9   h           x   0.14318 -0.17175 -0.10586  0.03936 -0.37118 -0.18727
                  y  -0.26316  0.55623  0.03773  0.05295 -0.35932 -0.25389
                  z   0.32967 -0.48406 -0.14861  0.03626 -0.34740 -0.14290
 10   h           x   0.01314  0.04409 -0.14323  0.12878  0.02494  0.00881
                  y   0.03300  0.16502 -0.69903  0.46575  0.09074  0.04882
                  z  -0.01885  0.11724 -0.64256 -0.59860 -0.02158  0.01267

reduced mass(g/mol)     1.048    1.069    1.042    1.080    1.078    1.081


       mode              25       26       27       28       29       30

     frequency        3354.64  3583.19  3679.25  3749.29  3778.92  3899.88

     symmetry            a        a        a        a        a        a   

        IR               YES      YES      YES      YES      YES      YES
|dDIP/dQ|   (a.u.)     0.0201   0.0136   0.0136   0.0107   0.0092   0.0038
intensity (km/mol)     715.12   326.86   328.97   202.64   151.90    25.79
intensity (  %   )     100.00    45.71    46.00    28.34    21.24     3.61
 
       RAMAN             YES      YES      YES      YES      YES      YES
 
  1   cl          x   0.00064  0.00000 -0.00014  0.00005 -0.00007 -0.00010
                  y   0.00043 -0.00042  0.00016  0.00010  0.00014 -0.00001
                  z   0.00003 -0.00014 -0.00019  0.00016 -0.00010 -0.00002
  2   o           x  -0.05932 -0.00431 -0.00204  0.00390 -0.00007  0.00967
                  y   0.01207  0.00108  0.00013 -0.00192 -0.00018 -0.04115
                  z  -0.00026  0.00045  0.00040  0.00024  0.00032  0.04477
  3   o           x   0.00718 -0.04330 -0.00328  0.04987  0.00993 -0.00087
                  y   0.00079  0.01763  0.00206  0.02988  0.00970 -0.00070
                  z  -0.00219  0.03550  0.00401  0.01589  0.00854 -0.00053
  4   o           x   0.00085  0.00503 -0.01021  0.01088 -0.03803  0.00011
                  y  -0.00083 -0.00498 -0.00069 -0.01328  0.04755 -0.00005
                  z  -0.00175 -0.00692  0.05573 -0.00355  0.00931 -0.00030
  5   h           x  -0.04127 -0.00219 -0.00066 -0.00034 -0.00080 -0.10022
                  y   0.04376  0.00348  0.00516  0.01026  0.00421  0.66387
                  z  -0.03952 -0.00596 -0.00582 -0.01068 -0.00581 -0.73608
  6   h           x  -0.00285 -0.04290 -0.13705 -0.15628  0.56391 -0.00024
                  y   0.00615  0.05851  0.17249  0.20693 -0.74802  0.00011
                  z  -0.00266 -0.00219  0.02804 -0.00694  0.03542  0.00000
  7   h           x  -0.04289 -0.09592 -0.02094 -0.73144 -0.21455  0.01484
                  y  -0.03026 -0.03715 -0.01181 -0.51582 -0.14902  0.01058
                  z  -0.01364 -0.00727 -0.00778 -0.32747 -0.09530  0.00905
  8   h           x  -0.01074 -0.03479  0.30017 -0.01463  0.03832 -0.00157
                  y   0.00724  0.01934 -0.16519  0.00211 -0.00454  0.00058
                  z   0.02808  0.11152 -0.90480  0.06470 -0.18213  0.00501
  9   h           x  -0.06730  0.77680  0.07493 -0.05966  0.06015 -0.00087
                  y   0.01751 -0.22867 -0.02278  0.04490 -0.01168  0.00046
                  z   0.05145 -0.55210 -0.05718  0.07545 -0.03695  0.00084
 10   h           x   0.95671  0.07464  0.03491 -0.06564  0.00269 -0.04993
                  y  -0.25024 -0.01877 -0.00726  0.01523 -0.00160 -0.01014
                  z   0.04173  0.00002 -0.00035 -0.00046 -0.00009  0.02441

reduced mass(g/mol)     1.064    1.061    1.057    1.067    1.069    1.065
 

         **************************************************************
         *                                                            *
         *  zero point VIBRATIONAL energy  :      0.0743991  Hartree  *
         *    SCF-energy                   :   -689.3348010           *
         *    SCF + E(vib0)                :   -689.2604019           *
         *                                                            *
         **************************************************************




 time elapsed for vibrational analysis     0.03 sec


    ------------------------------------------------------------------------
         total  cpu-time :  3 minutes and 26 seconds
         total wall-time :  3 minutes and 29 seconds
    ------------------------------------------------------------------------

   ****  force : all done  ****


    2018-03-04 02:11:24.057 

