
OPTIMIZATION CYCLE 38
Sun Mar  4 01:00:08 PST 2018
 operating system is UNIX !

 rdgrad (c-17-27.gp.local) : TURBOMOLE V7.2 ( 21454 ) 4 Oct 2017 at 12:24:43
 Copyright (C) 2017 TURBOMOLE GmbH, Karlsruhe


    2018-03-04 01:00:08.211 



                                 r d g r a d

                          gradient for ridft program 

                        by K.Eichkorn, O.Treutler, H.Oehm, 
                             M.Haeser and R.Ahlrichs
                  (Chemical Physics Letters 242 (1995) 652-660)
                    parallel version: M.v.Arnim  &  R.Ahlrichs
                            quantum chemistry group
                             university  karlsruhe
                                   germany




                          References             
                                                 
          Density Functional:                              
              O. Treutler and R. Ahlrichs                      
              Efficient Molecular Numerical Integration Schemes
              J. chem. Phys. 102: 346 (1995)                   
          Parallel Version:                                
              Performance of parallel TURBOMOLE for Density    
              Functional Calculations                          
              M. v.Arnim and R. Ahlrichs                      
              J. comp. Chem. 19: 1746 (1998)                   
          RI-J Method:                                     
              Auxiliary Basis Sets to approximate Coulomb      
              Potentials                                       
              Chem. Phys. Lett. 240: 283 (1995)                
              K. Eichkorn, O. Treutler, H. Oehm, M. Haeser     
              and R. Ahlrichs                                  
              Chem. Phys. Lett. 242: 652 (1995)                
                                                           
              Auxiliary Basis Sets for Main Row Atoms and their
              Use to approximate Coulomb Potentials            
              K. Eichkorn, F. Weigend, O. Treutler and         
              R. Ahlrichs                                      
              Theo. Chem. Acc. 97: 119 (1997)                   
                                         



 integral neglect threshold       :  0.18E-10
 integral storage threshold THIZE :  0.10E-04
 integral storage threshold THIME :         5

 PBE0 hybrid functional
 exchange:    3/4 (LDA+PBE) + 1/4 HF
 correlation: LDA (PW) + PBE
 A Hybrid-DFT calculation using the RI-J approximation will be carried out.
  
  
 AUXILIARY BASIS SET information:

 symmetry group of the molecule :   c1 

 the group has the following generators :
   c1(z)

    1 symmetry operations found

 there are 1 real representations :   a   

 maximum number of shells which are related by symmetry :  1


    mo occupation :
   irrep   mo's   occupied
    a      166       24
 
 number of basis functions   :                    166
 number of occupied orbitals :                     24
 

 number of off-diagonal lagrangians expected :  0

 biggest AO integral is expected to be    10.437462037
  
           ------------------
           density functional
           ------------------
 PBE0 hybrid functional
 exchange:    3/4 (LDA+PBE) + 1/4 HF
 correlation: LDA (PW) + PBE

 iterations will be done with small grid
  
 spherical integration : Lebedev's spherical grid
 spherical gridsize    :                     3
    i.e. gridpoints    :                   302
 value for diffuse not defined
 radial integration    : Chebyshev 2nd kind (scaling 3)
 radial gridsize       :                     3
 integration cells     :                    10
 partition function    : becke
 partition sharpness   :                     3
  
  
           ------------------------
             RDGRAD - INFORMATION
           ------------------------
  
 Threshold for integral neglect (rithr1): 1E-10
 Threshold for integral neglect (rithr2): 1E-10
 Contributions to RI integral batches: 
  neglected integral batches:                   311
  direct contribution:                         2174
     
 ****************************************
 Memory allocated for RDGRAD: 2 MiB
 ****************************************
                                            
     

 nuclear repulsion energy  :   164.984855092    

  MOs are in ASCII format !


 reading orbital data $scfmo  from file mos
 orbital characterization : scfconv=7
  Deviation of MOs from orthonormality   1.036352115235672E-010
  W A R N I N G 

    ----------------------------------------
     S+T+V CONTRIBUTIONS TO ENERGY GRADIENT 
    ----------------------------------------

 1e-integral 1st. derivatives will be neglected if expon. factor < 0.359956E-13

  _________________________________
 |                                 |
 |         DFTD3 V3.1 Rev 0        |
 | S.Grimme, University Bonn       |
 |            June  2014           |
 |   see standalone version        |
 |       dftd3 -h for options      |
 |_________________________________|
 
 Please cite DFT-D3 work done with this code as:
 S. Grimme, J. Antony, S. Ehrlich and H. Krieg,
 J. Chem. Phys, 132 (2010), 154104.
 If used with BJ-damping cite also
 S. Grimme, S. Ehrlich and L. Goerigk,
 J. Comput. Chem. 32 (2011), 1456-1465
 For DFT-D2 the reference is
 S. Grimme, J. Comput. Chem., 27 (2006), 1787-1799
 
C6 coefficients used:
                     2  C6 for element                      1
Z=  1 CN= 0.912     C6(AA)=    3.03
Z=  1 CN= 0.000     C6(AA)=    7.59
                     3  C6 for element                      8
Z=  8 CN= 0.000     C6(AA)=   15.51
Z=  8 CN= 0.993     C6(AA)=   12.82
Z=  8 CN= 1.989     C6(AA)=   10.37
                     2  C6 for element                     17
Z= 17 CN= 0.000     C6(AA)=   92.35
Z= 17 CN= 0.997     C6(AA)=   90.40

#           XYZ [au]              R0(AA) [Ang.]  CN          C6(AA)     C8(AA)   C10(AA) [au]
  1  -2.18044   0.08443   1.93872   cl  1.552  0.110        92.3      3849.5    196752.9
  2   3.63243   0.18459   1.80685   o   1.241  1.994        10.4       210.1      5193.9
  3   1.16062  -3.32498  -1.74991   o   1.241  1.994        10.4       210.1      5194.0
  4  -1.63244   0.94305  -4.19706   o   1.241  1.991        10.4       210.1      5194.5
  5   3.75687  -1.02374   3.15417   h   1.091  0.996         3.1        37.4       553.6
  6  -0.54608  -0.51890  -4.05561   h   1.091  0.996         3.1        37.4       553.5
  7   2.51023  -2.29870  -1.06158   h   1.091  0.997         3.1        37.4       553.5
  8  -2.13949   1.16471  -2.44588   h   1.091  1.007         3.1        37.3       552.7
  9  -0.23475  -2.80631  -0.65765   h   1.091  1.014         3.1        37.3       552.2
 10   1.80092   0.55759   1.80344   h   1.091  1.046         3.1        37.1       550.0

molecular C6(AA) [au] =       875.23

           DFT-D V3
 DF pbe0                                              
 parameters
 s6       :    1.0000
 s8       :    0.9280
 rs6      :    1.2870
 rs18     :    1.0000
 alpha6   :   14.0000
 alpha8   :   16.0000
 k1-k3    :   16.0000    1.3333   -4.0000
 
 Edisp /kcal,au:    -2.6732 -0.00426007

 E6    /kcal :    -0.5745
 E8    /kcal :    -2.0987
 % E8        : 78.51
 
 doing analytical gradient O(N^2) ...
 
 |G|=  3.137914016870230E-003

 setting up bound for integral derivative estimation

 increment for numerical differentiation : 0.00050000

 biggest AO integral is expected to be    10.437462037
 biggest cartesian 1st derivative AO integral is expected to be    27.837505180

 biggest 1-particle AO density matrix element is expected to be    2.1880757401

 setting up bound for integral derivative estimation

 increment for numerical differentiation : 0.00050000

 biggest AO integral is expected to be    10.437462037
 biggest cartesian 1st derivative AO integral is expected to be    27.837505180

 2e-integral 1st. derivatives will be neglected if expon. factor < 0.100000E-06
 outer boundary for 2e-integral derivative neglection is 0.348116E-08

          Overall gridpoints after grid construction =         47658

 Integrated ground state density     :   48.00008312703096    


          ------------------------------------------------
           cartesian gradient of the energy (hartree/bohr)
          ------------------------------------------------

  ATOM      1 cl          2 o           3 o           4 o           5 h 
dE/dx  0.7450193D-05  0.2228119D-04  0.2336106D-04  0.5385770D-06  0.1356298D-05
dE/dy  0.1107706D-04  0.4039016D-05  0.1675113D-04  0.1299175D-04  0.6158444D-05
dE/dz -0.8671032D-05 -0.2582326D-04  0.7323926D-05 -0.1696119D-05 -0.1543026D-04

  ATOM      6 h           7 h           8 h           9 h          10 h 
dE/dx -0.2030022D-04 -0.1902479D-04 -0.5302066D-05 -0.1117294D-04 -0.2526972D-05
dE/dy -0.9301831D-05  0.1089494D-05 -0.9301098D-05 -0.1870257D-04  0.1229651D-04
dE/dz -0.1589970D-04 -0.1289663D-04 -0.2324536D-05 -0.1370614D-04 -0.6619930D-05
 
 resulting FORCE  (fx,fy,fz) = (-.334D-05,0.271D-04,-.957D-04)
 resulting MOMENT (mx,my,mz) = (-.384D-05,0.283D-03,0.619D-04)


 exx =       0.000069 eyy =       0.000003 ezz =      -0.000037
 eyz =       0.000056 exz =      -0.000007 exy =       0.000035


 **********************************************************************
  |maximum component of gradient| : 0.25823259E-04  (atom  2 o )       
   gradient norm                  : 0.70905456E-04
 **********************************************************************
   ***  cartesian gradients written onto <gradient>  ***


     --- calculation of the energy gradient finished ---



    ------------------------------------------------------------------------
         total  cpu-time :   5.41 seconds
         total wall-time :   5.60 seconds
    ------------------------------------------------------------------------

   ****  rdgrad : all done  ****


    2018-03-04 01:00:13.804 

fine, there is no data group "$actual step"
next step = relax

 statpt (c-17-27.gp.local) : TURBOMOLE V7.2 ( 21454 ) 2 Oct 2017 at 16:43:05
 Copyright (C) 2017 TURBOMOLE GmbH, Karlsruhe


    2018-03-04 01:00:13.844 



                           this is S T A T P T   


                     hessian and coordinate update for
                          stationary point search 

                     by barbara unterreiner, marek sierka,
                           and reinhart ahlrichs

                          quantum chemistry group
                          universitaet  karlsruhe
                                  germany




              +--------------------------------------------------+
              | Atomic coordinate, charge and isotop information |
              +--------------------------------------------------+

                    atomic coordinates            atom    charge  isotop
         -2.18043541    0.08443299    1.93872465    cl    17.000     0
          3.63243399    0.18458673    1.80684761    o      8.000     0
          1.16061515   -3.32497596   -1.74990783    o      8.000     0
         -1.63243551    0.94304612   -4.19705752    o      8.000     0
          3.75687482   -1.02374012    3.15416998    h      1.000     0
         -0.54607940   -0.51890027   -4.05561147    h      1.000     0
          2.51022706   -2.29869517   -1.06157558    h      1.000     0
         -2.13949435    1.16471322   -2.44588336    h      1.000     0
         -0.23475250   -2.80630965   -0.65765190    h      1.000     0
          1.80092175    0.55758680    1.80344231    h      1.000     0
 
       center of nuclear mass  :   -0.24074376   -0.41483548   -0.00888179
       center of nuclear charge:   -0.14116586   -0.44827083   -0.07288793
  Keyword $statpt not found - using default options
 
        ***************  Stationary point options ******************
        ************************************************************
           Maximum allowed trust radius:           3.000000E-01
           Minimum allowed trust radius:           1.000000E-03
           Initial trust radius:                   1.500000E-01
           GDIIS used if gradient norm <           1.000000E-02
           Number of previous steps for GDIIS:       5
           Hessian update method:                  BFGS
                        *** Convergence criteria ***                
           Threshold for energy change:            1.000000E-06
           Threshold for max displacement element: 1.000000E-03
           Threshold for max gradient element :    1.000000E-03
           Threshold for RMS of displacement:      5.000000E-04
           Threshold for RMS of gradient:          5.000000E-04
        ************************************************************
 

 keyword $statp missing in file <control>

  Keyword $statpt not found - using default options
     Number of symmetry restricted degrees of freedom:    30
     Constituted by:     3 translational degrees of freedom
                         3 rotational degrees of freedom
                      24 internal degrees of freedom

  *************************************************************************
   ATOM                      CARTESIAN COORDINATES
    1 cl     -2.18043541490811      0.08443299105238      1.93872465334352
    2 o       3.63243398669071      0.18458672737079      1.80684760773327
    3 o       1.16061514743168     -3.32497595642351     -1.74990782777366
    4 o      -1.63243550564919      0.94304612124955     -4.19705752356402
    5 h       3.75687482058443     -1.02374012453001      3.15416997936811
    6 h      -0.54607940232787     -0.51890027228306     -4.05561146629674
    7 h       2.51022706280631     -2.29869516915438     -1.06157558058561
    8 h      -2.13949435370624      1.16471321663450     -2.44588335797316
    9 h      -0.23475250153563     -2.80630964891855     -0.65765189603226
   10 h       1.80092175193102      0.55758680177003      1.80344230571345
  *************************************************************************
   ATOM                      CARTESIAN GRADIENTS  
    1 cl      0.00000745019277      0.00001107705546     -0.00000867103211
    2 o       0.00002228118995      0.00000403901609     -0.00002582325863
    3 o       0.00002336106258      0.00001675112976      0.00000732392560
    4 o       0.00000053857700      0.00001299175494     -0.00000169611863
    5 h       0.00000135629817      0.00000615844420     -0.00001543025717
    6 h      -0.00002030021562     -0.00000930183065     -0.00001589969616
    7 h      -0.00001902478655      0.00000108949379     -0.00001289663247
    8 h      -0.00000530206560     -0.00000930109828     -0.00000232453647
    9 h      -0.00001117293796     -0.00001870257312     -0.00001370613724
   10 h      -0.00000252697222      0.00001229650662     -0.00000661993034
  *************************************************************************

  norm of actual CARTESIAN gradient:  7.09055E-05
  norm of actual INTERNAL  gradient:  7.40206E-05

  ENERGY =    -689.3348008751 a.u.; # of cycle =   38

  Approximate Hessian read from $hessapprox data section

  Hessian updated according to BFGS formula
  Number of zero Hessian eigenvalues:   0
  Number of structures for GDIIS interpolation:    5
  GDIIS step:     0.001203

  Transforming internal coordinate displacements to Cartesian space
      Iteration   1 residual norm     1.203313E-03
      Iteration   2 residual norm     2.180107E-07
      Iteration   3 residual norm     6.929395E-15
      Transformation converged
      Residual norm:    6.929395E-15 after    3 iterations

      ****************************************************************** 
                          CONVERGENCE INFORMATION

                               Converged?     Value      Criterion
             Energy change         yes      0.0000000   0.0000010
             RMS of displacement   yes      0.0002456   0.0005000
             RMS of gradient       yes      0.0000151   0.0005000
             MAX displacement      yes      0.0005861   0.0010000
             MAX gradient          yes      0.0000442   0.0010000
      ****************************************************************** 


    ------------------------------------------------------------------------
         total  cpu-time :   0.04 seconds
         total wall-time :   0.06 seconds
    ------------------------------------------------------------------------

   ****  statpt : all done  ****


    2018-03-04 01:00:13.895 

fine, there is no data group "$actual step"
next step = ridft
 operating system is UNIX !

 ridft (c-17-27.gp.local) : TURBOMOLE V7.2 ( 21454 ) 4 Oct 2017 at 12:48:15
 Copyright (C) 2017 TURBOMOLE GmbH, Karlsruhe


    2018-03-04 01:00:13.927 



                                  r i d f t

                        DFT program with RI approximation 
                                for coulomb part 




                                                 
                                 References:     
                                                 
          TURBOMOLE:                             
              R. Ahlrichs, M. Baer, M. Haeser, H. Horn, and
              C. Koelmel
              Electronic structure calculations on workstation
              computers: the program system TURBOMOLE
              Chem. Phys. Lett. 162: 165 (1989)
          Density Functional:                              
              O. Treutler and R. Ahlrichs                      
              Efficient Molecular Numerical Integration Schemes
              J. Chem. Phys. 102: 346 (1995)                   
          Parallel Version:                                
              Performance of parallel TURBOMOLE for Density    
              Functional Calculations                          
              M. v. Arnim and R. Ahlrichs                      
              J. Comp. Chem. 19: 1746 (1998)                   
          RI-J Method:                                     
              Auxiliary Basis Sets to approximate Coulomb      
              Potentials                                       
              Chem. Phys. Lett. 240: 283 (1995)                
              K. Eichkorn, O. Treutler, H. Oehm, M. Haeser     
              and R. Ahlrichs                                  
              Chem. Phys. Lett. 242: 652 (1995)                
                                                           
              Auxiliary Basis Sets for Main Row Atoms and their
              Use to approximate Coulomb Potentials            
              K. Eichkorn, F. Weigend, O. Treutler and         
              R. Ahlrichs                                      
              Theo. Chem. Acc. 97: 119 (1997)                   
                                                           
              Accurate Coulomb-fitting basis sets for H to Rn 
              F. Weigend                                        
              Phys. Chem. Chem. Phys. 8: 1057 (2006)            
                                                           
          Multipole accelerated RI-J (MARI-J):             
              Fast evaluation of the Coulomb potential for     
              electron densities using multipole accelerated   
              resolution of identity approximation             
              M. Sierka, A. Hogekamp and R. Ahlrichs           
              J. Chem. Phys. 118: 9136 (2003)                  
          RI-JK Method:                                     
              A fully direct RI-HF algorithm: Implementation,
              optimised auxiliary basis sets, demonstration of
              accuracy and efficiency                         
              F. Weigend                                      
              Phys. Chem. Chem. Phys. 4: 4285 (2002)           
          Two-component HF and DFT with spin-orbit coupling:  
              Self-consistent treatment of spin-orbit         
              interactions with efficient Hartree-Fock and    
              density functional methods                      
              M. K. Armbruster, F. Weigend, C. van Wüllen and 
              W. Klopper                                      
              Phys. Chem. Chem. Phys. 10: 1748 (2008)         
          Relativistic all-electron 2c calculations           
              An efficient implementation of two-component    
              relativistic exact-decoupling methods for large 
              molecules                                       
              D. Peng, N. Middendorf, F. Weigend, M. Reiher   
              J. Chem. Phys. 138, 184105 (2013)               
                                         




              +--------------------------------------------------+
              |      general information about current run       |
              +--------------------------------------------------+

 
 PBE0 hybrid functional
 exchange:    3/4 (LDA+PBE) + 1/4 HF
 correlation: LDA (PW) + PBE
 A Hybrid-DFT calculation using the RI-J approximation will be carried out.
 Allocatable memory for RI due to $ricore (MB):                  3000


              +--------------------------------------------------+
              | Atomic coordinate, charge and isotop information |
              +--------------------------------------------------+

                    atomic coordinates            atom    charge  isotop
         -2.18043278    0.08422080    1.93898609    cl    17.000     0
          3.63239143    0.18454159    1.80684543    o      8.000     0
          1.16033502   -3.32461804   -1.75001535    o      8.000     0
         -1.63253763    0.94268562   -4.19735159    o      8.000     0
          3.75724327   -1.02374475    3.15417107    h      1.000     0
         -0.54578236   -0.51893851   -4.05543299    h      1.000     0
          2.51026375   -2.29880790   -1.06161859    h      1.000     0
         -2.13960556    1.16478453   -2.44626563    h      1.000     0
         -0.23483833   -2.80571353   -0.65757907    h      1.000     0
          1.80083879    0.55733488    1.80375752    h      1.000     0
 
       center of nuclear mass  :   -0.24081390   -0.41492514   -0.00884881
       center of nuclear charge:   -0.14122824   -0.44835018   -0.07285907

              +--------------------------------------------------+
              |               basis set information              |
              +--------------------------------------------------+

              we will work with the 1s 3p 5d 7f 9g ... basis set
              ...i.e. with spherical basis functions...

   type   atoms  prim   cont   basis
   ---------------------------------------------------------------------------
    cl       1     63     37   def2-TZVP   [5s5p2d1f|14s9p3d1f]
    o        3     46     31   def2-TZVP   [5s3p2d1f|11s6p2d1f]
    h        6      8      6   def2-TZVP   [3s1p|5s1p]
   ---------------------------------------------------------------------------
   total:   10    249    166
   ---------------------------------------------------------------------------

   total number of primitive shells          :   53
   total number of contracted shells         :   70
   total number of cartesian basis functions :  186
   total number of SCF-basis functions       :  166


 integral neglect threshold       :  0.18E-10
 integral storage threshold THIZE :  0.10E-04
 integral storage threshold THIME :         5

 RI-J AUXILIARY BASIS SET information:

              we will work with the 1s 3p 5d 7f 9g ... basis set
              ...i.e. with spherical basis functions...

   type   atoms  prim   cont   basis
   ---------------------------------------------------------------------------
    cl       1     77     51   def2-TZVP   [8s4p3d1f1g|14s5p5d2f1g]
    o        3     70     49   def2-TZVP   [6s4p3d1f1g|12s5p4d2f1g]
    h        6     16     11   def2-TZVP   [3s1p1d|5s2p1d]
   ---------------------------------------------------------------------------
   total:   10    383    264
   ---------------------------------------------------------------------------

   total number of primitive shells          :   59
   total number of contracted shells         :   92
   total number of cartesian basis functions :  318
   total number of SCF-basis functions       :  264


 symmetry group of the molecule :   c1 

 the group has the following generators :
   c1(z)

    1 symmetry operations found

 there are 1 real representations :   a   

 maximum number of shells which are related by symmetry :  1


    mo occupation :
   irrep   mo's   occupied
    a      166       24
 
 number of basis functions   :                    166
 number of occupied orbitals :                     24
 
  
           ------------------
           density functional
           ------------------
 PBE0 hybrid functional
 exchange:    3/4 (LDA+PBE) + 1/4 HF
 correlation: LDA (PW) + PBE

 iterations will be done with small grid
  
 spherical integration : Lebedev's spherical grid
 spherical gridsize    :                     3
    i.e. gridpoints    :                   302
 value for diffuse not defined
 radial integration    : Chebyshev 2nd kind (scaling 3)
 radial gridsize       :                     3
 integration cells     :                    10
 partition function    : becke
 partition sharpness   :                     3
  

 biggest AO integral is expected to be    10.437462037
  
           ------------------------
               RI-J - INFORMATION
           ------------------------
 Contributions to RI integral batches: 
  neglected integral batches:                   311
  direct contribution:                            0
  memory contribution:                  2174
 Memory core needed for (P|Q) and Cholesky      1 MByte
 Memory core minimum needed except of (P|Q)     1 MByte
 Total minimum memory core needed (sum)         1 MByte
  
 ****************************************
 Memory allocated for RI-J    38 MByte
 ****************************************
                                            

          ------------------------
          nuclear repulsion energy  :   164.985312977    
          ------------------------

  _________________________________
 |                                 |
 |         DFTD3 V3.1 Rev 0        |
 | S.Grimme, University Bonn       |
 |            June  2014           |
 |   see standalone version        |
 |       dftd3 -h for options      |
 |_________________________________|
 
 Please cite DFT-D3 work done with this code as:
 S. Grimme, J. Antony, S. Ehrlich and H. Krieg,
 J. Chem. Phys, 132 (2010), 154104.
 If used with BJ-damping cite also
 S. Grimme, S. Ehrlich and L. Goerigk,
 J. Comput. Chem. 32 (2011), 1456-1465
 For DFT-D2 the reference is
 S. Grimme, J. Comput. Chem., 27 (2006), 1787-1799
 
C6 coefficients used:
                     2  C6 for element                      1
Z=  1 CN= 0.912     C6(AA)=    3.03
Z=  1 CN= 0.000     C6(AA)=    7.59
                     3  C6 for element                      8
Z=  8 CN= 0.000     C6(AA)=   15.51
Z=  8 CN= 0.993     C6(AA)=   12.82
Z=  8 CN= 1.989     C6(AA)=   10.37
                     2  C6 for element                     17
Z= 17 CN= 0.000     C6(AA)=   92.35
Z= 17 CN= 0.997     C6(AA)=   90.40

#           XYZ [au]              R0(AA) [Ang.]  CN          C6(AA)     C8(AA)   C10(AA) [au]
  1  -2.18043   0.08422   1.93899   cl  1.552  0.110        92.3      3849.5    196752.9
  2   3.63239   0.18454   1.80685   o   1.241  1.994        10.4       210.1      5193.9
  3   1.16034  -3.32462  -1.75002   o   1.241  1.994        10.4       210.1      5194.0
  4  -1.63254   0.94269  -4.19735   o   1.241  1.991        10.4       210.1      5194.5
  5   3.75724  -1.02374   3.15417   h   1.091  0.996         3.1        37.4       553.6
  6  -0.54578  -0.51894  -4.05543   h   1.091  0.996         3.1        37.4       553.5
  7   2.51026  -2.29881  -1.06162   h   1.091  0.997         3.1        37.4       553.5
  8  -2.13961   1.16478  -2.44627   h   1.091  1.007         3.1        37.3       552.7
  9  -0.23484  -2.80571  -0.65758   h   1.091  1.014         3.1        37.3       552.2
 10   1.80084   0.55733   1.80376   h   1.091  1.046         3.1        37.1       550.0

molecular C6(AA) [au] =       875.23

           DFT-D V3
 DF pbe0                                              
 parameters
 s6       :    1.0000
 s8       :    0.9280
 rs6      :    1.2870
 rs18     :    1.0000
 alpha6   :   14.0000
 alpha8   :   16.0000
 k1-k3    :   16.0000    1.3333   -4.0000
 
 Edisp /kcal,au:    -2.6732 -0.00425995

 E6    /kcal :    -0.5745
 E8    /kcal :    -2.0987
 % E8        : 78.51
 nuclear repulsion energy                  =     164.985312977
 empirical dispersive energy correction    =      -0.004259952
 nuclear repulsion + dispersion correction =     164.981053024


         -----------------
         -S,T+V- integrals
         -----------------

 1e-integrals will be neglected if expon. factor < 0.179675E-11
 
   Difference densities algorithm switched on.
   The maximal number of linear combinations of
   difference densities is                    20 .

 DIIS switched on: error vector is FDS-SDF
 Max. Iterations for DIIS is     :   4
 DIIS matrix (see manual) 
    Scaling factor of diagonals  :  1.200
    threshold for scaling factor :  0.000

 scf convergence criterion : increment of total energy < .1000000D-06
                  and increment of one-electron energy < .1000000D-03

  MOs are in ASCII format !


 automatic virtual orbital shift switched on 
      shift if e(lumo)-e(homo) < 0.10000000    


 reading orbital data $scfmo  from file mos
 orbital characterization : scfconv=7

 DSCF restart information will be dumped onto file mos


 Starting SCF iterations

          Overall gridpoints after grid construction =         12625

 ITERATION  ENERGY          1e-ENERGY        2e-ENERGY     NORM[dD(SAO)]  TOL
   1  -689.33474847436    -1289.1318174     434.81601594    0.000D+00 0.179D-10
                            Exc = -42.4863072306     Coul =  490.944234148    
                            exK = -13.6419109769    
                              N = 47.999927157    
                            current damping = 0.700
 
          max. resid. norm for Fia-block=  9.669D-05 for orbital     21a         
          max. resid. fock norm         =  7.487D-04 for orbital    134a         

 ITERATION  ENERGY          1e-ENERGY        2e-ENERGY     NORM[dD(SAO)]  TOL
   2  -689.33474850844    -1289.1315856     434.81578403    0.184D-03 0.114D-10
                            Exc = -42.4862797223      Eck =  477.302063751    
                              N = 47.999927153    
                            current damping = 0.700
 
          Norm of current diis error: 0.28986E-03
          max. resid. norm for Fia-block=  4.527D-05 for orbital     21a         
          max. resid. fock norm         =  3.086D-04 for orbital    134a         

 ENERGY CONVERGED !

          Overall gridpoints after grid construction =         47659

 ITERATION  ENERGY          1e-ENERGY        2e-ENERGY     NORM[dD(SAO)]  TOL
   3  -689.33480096434    -1289.1317588     434.81590480    0.506D-04 0.867D-11
                            Exc = -42.4863524856      Eck =  477.302257283    
                              N = 48.000083395    
                            current damping = 0.750
 
          Norm of current diis error: 0.15230E-03
          max. resid. norm for Fia-block=  2.038D-05 for orbital     21a         
          max. resid. fock norm         =  1.273D-04 for orbital    134a         

 End of SCF iterations

   convergence criteria satisfied after     3 iterations


                  ------------------------------------------ 
                 |  total energy      =   -689.33480096434  |
                  ------------------------------------------ 
                 :  kinetic energy    =    687.93133635962  :
                 :  potential energy  =  -1377.26613732395  :
                 :  virial theorem    =      1.99796403054  :
                 :  wavefunction norm =      1.00000000000  :
                  .......................................... 


 orbitals $scfmo  will be written to file mos

    irrep                 20a         21a         22a         23a         24a   
 eigenvalues H         -0.16694    -0.14883    -0.10666    -0.10459    -0.10371
            eV          -4.5427     -4.0499     -2.9023     -2.8462     -2.8221
 occupation              2.0000      2.0000      2.0000      2.0000      2.0000 

    irrep                 25a         26a         27a         28a         29a   
 eigenvalues H          0.17707     0.23038     0.27495     0.30184     0.30762
            eV           4.8183      6.2691      7.4817      8.2136      8.3708
 
 
 
 
 ==============================================================================
                           electrostatic moments
 ==============================================================================

 reference point for electrostatic moments:    0.00000   0.00000   0.00000

 
              nuc           elec       ->  total
 ------------------------------------------------------------------------------
                          charge      
 ------------------------------------------------------------------------------
          47.000000     -48.000000      -1.000000
 
 ------------------------------------------------------------------------------
                       dipole moment  
 ------------------------------------------------------------------------------
   x      -6.637727       7.716367       1.078640
   y     -21.072458      20.980519      -0.091939
   z      -3.424376       4.061617       0.637241
 
   | dipole moment | =     1.2562 a.u. =     3.1929 debye 
 
 ------------------------------------------------------------------------------
                     quadrupole moment
 ------------------------------------------------------------------------------
  xx     247.061733    -281.144172     -34.082439
  yy     112.068201    -143.636368     -31.568168
  zz     292.666909    -329.015453     -36.348545
  xy     -51.095813      51.014820      -0.080993
  xz      39.242285     -38.135054       1.107232
  yz      21.651267     -22.941031      -1.289764
 
     1/3  trace=     -33.999717
     anisotropy=       5.083546
 
 ==============================================================================
 


    ------------------------------------------------------------------------
         total  cpu-time :   5.08 seconds
         total wall-time :   5.38 seconds
    ------------------------------------------------------------------------

   ****  ridft : all done  ****


    2018-03-04 01:00:19.297 

fine, there is no data group "$actual step"
next step = rdgrad
 energy change  : actual value =  -0.4410E-07 threshold =   0.1000E-05
 geom. gradient : actual value =   0.4420E-04 threshold =   0.1000E-02

CONVERGENCY CRITERIA FULFILLED IN CYCLE 38

