[Molden Format]
[Title]
                                                                                
[Atoms] AU
 cl    1   17 -.21804327820079E+01 0.84220800541670E-01 0.19389860863941E+01
 o     2    8 0.36323914263613E+01 0.18454158635541E+00 0.18068454268960E+01
 o     3    8 0.11603350176931E+01 -.33246180429310E+01 -.17500153487151E+01
 o     4    8 -.16325376330798E+01 0.94268562045170E+00 -.41973515931239E+01
 h     5    1 0.37572432731088E+01 -.10237447534032E+01 0.31541710710598E+01
 h     6    1 -.54578236153051E+00 -.51893851016528E+00 -.40554329879890E+01
 h     7    1 0.25102637507300E+01 -.22988079011298E+01 -.10616185924317E+01
 h     8    1 -.21396055629521E+01 0.11647845317407E+01 -.24462656251450E+01
 h     9    1 -.23483833045147E+00 -.28057135265544E+01 -.65757906678963E+00
 h    10    1 0.18008387934458E+01 0.55733488186192E+00 0.18037575237775E+01
[GTO]
    1 0
 s    7 1.00
 0.69507990945000E+05 0.51457389646325E-03
 0.10426156880000E+05 0.39781344806745E-02
 0.23732334061000E+04 0.20456178670619E-01
 0.67156420071000E+03 0.80148102887582E-01
 0.21841999790000E+03 0.23454770317658E+00
 0.77572249714000E+02 0.44543368582255E+00
 0.28888815277000E+02 0.35466842499038E+00
 s    3 1.00
 0.12710527185000E+03 0.11293688054705E+00
 0.39339582961000E+02 0.48373514210060E+00
 0.76740679989000E+01 -.12292297389810E+01
 s    2 1.00
 0.38745627630000E+01 0.67296821635762E+00
 0.18385832573000E+01 0.34956051409054E+00
 s    1 1.00
 0.50229057542000E+00 0.10000000000000E+01
 s    1 1.00
 0.17962723420000E+00 0.10000000000000E+01
 p    5 1.00
 0.66650423284000E+03 0.33502508198275E-02
 0.15764241690000E+03 0.26763970407523E-01
 0.50262520978000E+02 0.12362682360800E+00
 0.18536078105000E+02 0.35845787918981E+00
 0.72940532777000E+01 0.61677296353714E+00
 p    1 1.00
 0.29433248995000E+01 0.10000000000000E+01
 p    1 1.00
 0.10404970818000E+01 0.10000000000000E+01
 p    1 1.00
 0.38456415080000E+00 0.10000000000000E+01
 p    1 1.00
 0.13069642732000E+00 0.10000000000000E+01
 d    2 1.00
 0.46100000000000E+01 0.18265835045336E+00
 0.10110000000000E+01 0.91329175226681E+00
 d    1 1.00
 0.33900000000000E+00 0.10000000000000E+01
 f    1 1.00
 0.70600000000000E+00 0.10000000000000E+01
 
    2 0
 s    6 1.00
 0.27032382631000E+05 0.57227335211155E-03
 0.40523871392000E+04 0.44353233492995E-02
 0.92232722710000E+03 0.23020107706038E-01
 0.26124070989000E+03 0.92822490667928E-01
 0.85354641351000E+02 0.29378500009671E+00
 0.31035035245000E+02 0.67401604501641E+00
 s    2 1.00
 0.12260860728000E+02 0.63839937025506E+00
 0.49987076005000E+01 0.39534587125718E+00
 s    1 1.00
 0.11703108158000E+01 0.10000000000000E+01
 s    1 1.00
 0.46474740994000E+00 0.10000000000000E+01
 s    1 1.00
 0.18504536357000E+00 0.10000000000000E+01
 p    4 1.00
 0.63274954801000E+02 0.12018332222616E-01
 0.14627049379000E+02 0.83005421790056E-01
 0.44501223456000E+01 0.31991743925964E+00
 0.15275799647000E+01 0.70715542916104E+00
 p    1 1.00
 0.52935117943000E+00 0.10000000000000E+01
 p    1 1.00
 0.17478421270000E+00 0.10000000000000E+01
 d    1 1.00
 0.23140000000000E+01 0.10000000000000E+01
 d    1 1.00
 0.64500000000000E+00 0.10000000000000E+01
 f    1 1.00
 0.14280000000000E+01 0.10000000000000E+01
 
    3 0
 s    6 1.00
 0.27032382631000E+05 0.57227335211155E-03
 0.40523871392000E+04 0.44353233492995E-02
 0.92232722710000E+03 0.23020107706038E-01
 0.26124070989000E+03 0.92822490667928E-01
 0.85354641351000E+02 0.29378500009671E+00
 0.31035035245000E+02 0.67401604501641E+00
 s    2 1.00
 0.12260860728000E+02 0.63839937025506E+00
 0.49987076005000E+01 0.39534587125718E+00
 s    1 1.00
 0.11703108158000E+01 0.10000000000000E+01
 s    1 1.00
 0.46474740994000E+00 0.10000000000000E+01
 s    1 1.00
 0.18504536357000E+00 0.10000000000000E+01
 p    4 1.00
 0.63274954801000E+02 0.12018332222616E-01
 0.14627049379000E+02 0.83005421790056E-01
 0.44501223456000E+01 0.31991743925964E+00
 0.15275799647000E+01 0.70715542916104E+00
 p    1 1.00
 0.52935117943000E+00 0.10000000000000E+01
 p    1 1.00
 0.17478421270000E+00 0.10000000000000E+01
 d    1 1.00
 0.23140000000000E+01 0.10000000000000E+01
 d    1 1.00
 0.64500000000000E+00 0.10000000000000E+01
 f    1 1.00
 0.14280000000000E+01 0.10000000000000E+01
 
    4 0
 s    6 1.00
 0.27032382631000E+05 0.57227335211155E-03
 0.40523871392000E+04 0.44353233492995E-02
 0.92232722710000E+03 0.23020107706038E-01
 0.26124070989000E+03 0.92822490667928E-01
 0.85354641351000E+02 0.29378500009671E+00
 0.31035035245000E+02 0.67401604501641E+00
 s    2 1.00
 0.12260860728000E+02 0.63839937025506E+00
 0.49987076005000E+01 0.39534587125718E+00
 s    1 1.00
 0.11703108158000E+01 0.10000000000000E+01
 s    1 1.00
 0.46474740994000E+00 0.10000000000000E+01
 s    1 1.00
 0.18504536357000E+00 0.10000000000000E+01
 p    4 1.00
 0.63274954801000E+02 0.12018332222616E-01
 0.14627049379000E+02 0.83005421790056E-01
 0.44501223456000E+01 0.31991743925964E+00
 0.15275799647000E+01 0.70715542916104E+00
 p    1 1.00
 0.52935117943000E+00 0.10000000000000E+01
 p    1 1.00
 0.17478421270000E+00 0.10000000000000E+01
 d    1 1.00
 0.23140000000000E+01 0.10000000000000E+01
 d    1 1.00
 0.64500000000000E+00 0.10000000000000E+01
 f    1 1.00
 0.14280000000000E+01 0.10000000000000E+01
 
    5 0
 s    3 1.00
 0.34061341000000E+02 0.25439307208879E-01
 0.51235746000000E+01 0.19008594890375E+00
 0.11646626000000E+01 0.85244113011042E+00
 s    1 1.00
 0.32723041000000E+00 0.10000000000000E+01
 s    1 1.00
 0.10307241000000E+00 0.10000000000000E+01
 p    1 1.00
 0.80000000000000E+00 0.10000000000000E+01
 
    6 0
 s    3 1.00
 0.34061341000000E+02 0.25439307208879E-01
 0.51235746000000E+01 0.19008594890375E+00
 0.11646626000000E+01 0.85244113011042E+00
 s    1 1.00
 0.32723041000000E+00 0.10000000000000E+01
 s    1 1.00
 0.10307241000000E+00 0.10000000000000E+01
 p    1 1.00
 0.80000000000000E+00 0.10000000000000E+01
 
    7 0
 s    3 1.00
 0.34061341000000E+02 0.25439307208879E-01
 0.51235746000000E+01 0.19008594890375E+00
 0.11646626000000E+01 0.85244113011042E+00
 s    1 1.00
 0.32723041000000E+00 0.10000000000000E+01
 s    1 1.00
 0.10307241000000E+00 0.10000000000000E+01
 p    1 1.00
 0.80000000000000E+00 0.10000000000000E+01
 
    8 0
 s    3 1.00
 0.34061341000000E+02 0.25439307208879E-01
 0.51235746000000E+01 0.19008594890375E+00
 0.11646626000000E+01 0.85244113011042E+00
 s    1 1.00
 0.32723041000000E+00 0.10000000000000E+01
 s    1 1.00
 0.10307241000000E+00 0.10000000000000E+01
 p    1 1.00
 0.80000000000000E+00 0.10000000000000E+01
 
    9 0
 s    3 1.00
 0.34061341000000E+02 0.25439307208879E-01
 0.51235746000000E+01 0.19008594890375E+00
 0.11646626000000E+01 0.85244113011042E+00
 s    1 1.00
 0.32723041000000E+00 0.10000000000000E+01
 s    1 1.00
 0.10307241000000E+00 0.10000000000000E+01
 p    1 1.00
 0.80000000000000E+00 0.10000000000000E+01
 
   10 0
 s    3 1.00
 0.34061341000000E+02 0.25439307208879E-01
 0.51235746000000E+01 0.19008594890375E+00
 0.11646626000000E+01 0.85244113011042E+00
 s    1 1.00
 0.32723041000000E+00 0.10000000000000E+01
 s    1 1.00
 0.10307241000000E+00 0.10000000000000E+01
 p    1 1.00
 0.80000000000000E+00 0.10000000000000E+01
 
[MO]
 Sym=     1a   
 Ene= -.10144170720640E+03
 Spin= Alpha
 Occup= 2.000000
     1 0.10001931247734E+01
     2 -.32187130838427E-01
     3 -.10236492403303E-01
     4 0.34823593536604E-02
     5 -.21389246150826E-02
     6 0.11724250523049E-04
     7 -.32698818921081E-05
     8 -.15931442950963E-05
     9 0.89422609206687E-05
    10 0.18771026050288E-05
    11 -.22691496845010E-04
    12 -.54417040251562E-04
    13 0.12683394750233E-05
    14 0.74956871111625E-04
    15 0.16653049023965E-03
    16 -.12114229025400E-04
    17 -.17652075331098E-03
    18 -.47139876771051E-03
    19 0.45567420236195E-04
    20 0.35942560029046E-03
    21 0.16805747167030E-04
    22 -.16049435316372E-04
    23 -.75631185065702E-06
    24 -.12001921026092E-05
    25 -.99731250296525E-05
    26 0.68823631504557E-05
    27 -.44893148470665E-04
    28 0.40608723549194E-04
    29 0.42844249214712E-05
    30 0.26108709595826E-05
    31 0.24600617010421E-04
    32 -.17086738851219E-04
    33 -.37745487314155E-05
    34 0.18547373310781E-05
    35 0.54134504927807E-06
    36 0.17049393083448E-05
    37 -.21560951490269E-05
    38 -.16192753264519E-05
    39 0.33591492203537E-05
    40 -.33229610259137E-06
    41 0.89298472877070E-06
    42 -.22447571994438E-05
    43 -.24967561381630E-05
    44 0.89307650419628E-05
    45 -.74853810078291E-04
    46 0.28725057475732E-03
    47 -.75977984476926E-03
    48 -.17549959701410E-04
    49 -.19990093589103E-04
    50 0.62352443473859E-06
    51 0.52481446993564E-04
    52 0.63183521559978E-04
    53 0.11832198276223E-04
    54 0.31749517273646E-03
    55 -.22408608015766E-03
    56 0.31346931577739E-04
    57 0.12713050372890E-04
    58 -.65888830058092E-05
    59 -.61241673670806E-05
    60 -.46418797615371E-05
    61 -.26729980775514E-06
    62 0.28342871354533E-06
    63 -.45604148888972E-04
    64 0.24669350738048E-04
    65 0.20934798150925E-04
    66 0.80346800377584E-05
    67 0.11844969472340E-05
    68 -.71326056926645E-05
    69 0.75793174532364E-06
    70 -.11764669663654E-05
    71 -.73247279108643E-06
    72 -.11390059590556E-05
    73 0.26874450297906E-05
    74 0.11258656719860E-07
    75 0.12213381614634E-06
    76 -.11090489637451E-05
    77 0.97145671480309E-06
    78 -.40211065316176E-06
    79 -.38299118958825E-06
    80 0.14586606041471E-05
    81 -.18895050047803E-04
    82 0.11085425594003E-03
    83 -.42982808528073E-03
    84 -.38308317314664E-05
    85 0.23785469579604E-04
    86 0.74533922709892E-05
    87 0.46033324914083E-04
    88 -.76708700182857E-04
    89 -.27132082919781E-04
    90 0.26849555552702E-03
    91 0.59640730099488E-04
    92 -.15132176602166E-03
    93 0.12488892054276E-05
    94 -.36102173322257E-05
    95 0.23613281267982E-05
    96 -.59353556130987E-05
    97 -.87635432861171E-05
    98 0.36298601460747E-05
    99 -.21558628524282E-06
   100 0.11538512603920E-04
   101 -.11322926318677E-04
   102 0.33617474798418E-04
   103 0.38400803626351E-04
   104 -.15467217466815E-04
   105 -.13053911298875E-05
   106 0.91067888442763E-06
   107 -.38837499142671E-06
   108 0.18927371500518E-05
   109 0.22222125035351E-06
   110 0.11954678120436E-05
   111 -.14137116785949E-06
   112 -.14440251851058E-05
   113 -.67440808308896E-06
   114 0.29672037845245E-05
   115 -.78287953376073E-06
   116 0.26873438615019E-05
   117 -.94855810658086E-05
   118 0.68066483123075E-04
   119 -.49459672294462E-03
   120 0.43730005224991E-05
   121 -.11957779365468E-04
   122 0.20083324282556E-04
   123 -.20236139300324E-07
   124 0.33665909452261E-04
   125 -.11869344049906E-03
   126 0.12212402109838E-03
   127 -.99835519286674E-04
   128 -.25726184911212E-03
   129 -.59450491467039E-05
   130 -.63175285246872E-05
   131 0.12262577671391E-04
   132 0.44887236233956E-06
   133 -.37747548224694E-05
   134 0.15507213603192E-06
   135 0.29172845429661E-04
   136 0.31667940656263E-04
   137 -.60840786085924E-04
   138 -.30090950039699E-05
   139 0.18865006889065E-04
   140 -.63069471709655E-06
   141 -.49701362865271E-06
   142 -.46452696075708E-06
   143 -.34730556834072E-05
   144 0.15286646930050E-06
   145 -.51710403116927E-06
   146 0.24418111884530E-05
   147 0.51394728634628E-06
   148 0.11403323481498E-05
   149 0.22177819701912E-05
   150 -.29367837675535E-06
   151 -.26403766050754E-05
   152 -.44458039582522E-04
   153 -.15323960060311E-03
   154 -.12664726616276E-05
   155 -.77825583491134E-05
   156 0.26993847363810E-04
   157 -.96666575581090E-05
   158 0.28890508224332E-04
   159 -.20718923677636E-03
   160 0.83030830666040E-06
   161 -.86882339092025E-05
   162 0.13722204016843E-04
   163 -.34922373005543E-05
   164 -.88482727436779E-04
   165 -.18852218017624E-03
   166 0.21019091238264E-04
   167 0.18456328347917E-04
   168 0.23855588471828E-04
   169 -.22014087001431E-04
   170 0.41400117445459E-03
   171 0.43462379128541E-03
   172 0.53010158993161E-04
   173 -.47852839241638E-04
   174 -.51931220127942E-04
   175 -.25647970435059E-04
   176 0.30507604040429E-03
   177 0.58184246402739E-03
   178 0.47286944395986E-04
   179 0.48955398643467E-04
   180 -.81362783743570E-05
   181 -.37850068158966E-04
   182 0.34737045945213E-03
   183 0.88867824884627E-03
   184 -.27437705008230E-04
   185 -.45901493472969E-04
   186 -.28780561231587E-05
 Sym=     2a   
 Ene= -.19053475456830E+02
 Spin= Alpha
 Occup= 2.000000
     1 -.73397413066167E-05
     2 0.15192840031738E-04
     3 0.44381002393489E-04
     4 -.19720558345224E-03
     5 0.62399218462322E-03
     6 0.89954961809040E-06
     7 0.50755207040114E-05
     8 0.78057402590103E-05
     9 -.30910392923771E-06
    10 -.24433243910861E-04
    11 -.37232974193476E-04
    12 -.59741940955125E-05
    13 0.73173701982013E-04
    14 0.10542046563173E-03
    15 0.42374135393063E-04
    16 -.16352565176898E-03
    17 -.21479530086883E-03
    18 0.37301618820834E-03
    19 0.31701119865071E-03
    20 0.36134843273621E-03
    21 0.11493503477553E-04
    22 -.13725073813866E-04
    23 0.22315703363125E-05
    24 -.32899200649137E-04
    25 -.70140312696006E-05
    26 0.99208400656449E-05
    27 -.23624591589363E-05
    28 0.21995738395418E-04
    29 -.19633279236481E-04
    30 0.78251245001547E-04
    31 0.16528615812653E-04
    32 -.23072453927451E-04
    33 -.13700243950594E-04
    34 -.23826137492918E-05
    35 0.62664056213732E-07
    36 0.95207063311982E-05
    37 0.42510703370043E-05
    38 -.84965464137372E-06
    39 0.88600997379166E-05
    40 -.10544585524791E-05
    41 0.76558198770986E-06
    42 -.19829523661119E-05
    43 0.43538205125907E+00
    44 0.63979500209608E+00
    45 0.33093892355649E-01
    46 -.21577816576759E-01
    47 0.10959753559123E-01
    48 -.11032538109794E-02
    49 -.67861574846934E-03
    50 0.93213560852096E-03
    51 0.19765041129396E-02
    52 0.92837612394891E-03
    53 -.13019877871293E-02
    54 -.16636108235542E-02
    55 -.40745702533495E-03
    56 0.29844614051845E-03
    57 0.26297796798184E-04
    58 -.19554237367330E-04
    59 -.67435594308538E-05
    60 -.31559440162430E-04
    61 0.52874926872943E-06
    62 -.85862994351501E-04
    63 -.16211344623072E-03
    64 0.10646385448030E-03
    65 0.55649591750420E-04
    66 0.16207974473630E-03
    67 -.84576657318388E-05
    68 0.36419134888074E-03
    69 0.48565680118556E-04
    70 0.93671726126728E-06
    71 0.44949313834691E-05
    72 -.28066599300040E-04
    73 -.46670534937449E-04
    74 0.22632399965766E-04
    75 -.37091097971121E-04
    76 0.45413796854314E-04
    77 -.28662983242346E-04
    78 0.58085349188303E-05
    79 -.66587615314837E-04
    80 -.87728090252935E-04
    81 -.75100600053334E-04
    82 0.11509297348501E-03
    83 0.40010000613564E-03
    84 0.38901784198146E-05
    85 -.29539300869731E-04
    86 -.35225747982655E-04
    87 -.19725413933760E-04
    88 0.12850787246114E-03
    89 0.16062000317911E-03
    90 0.58246512998462E-03
    91 0.12289579793318E-03
    92 -.48557204425122E-04
    93 0.39677768502730E-07
    94 -.49448902301721E-05
    95 0.49052124616693E-05
    96 -.11704433438705E-04
    97 -.13559241785247E-04
    98 -.44123810259511E-06
    99 -.87520502711890E-05
   100 0.17539736667935E-04
   101 -.87876863967460E-05
   102 0.44437111917587E-04
   103 0.55576394972811E-04
   104 0.21067698168918E-04
   105 -.45860272269840E-05
   106 0.15619185926748E-05
   107 -.14074221310948E-05
   108 0.10954411441949E-05
   109 -.38931431619950E-05
   110 0.59968138494937E-06
   111 0.50573600315257E-05
   112 0.17976094728700E-05
   113 0.12885735499499E-05
   114 0.29739655990610E-05
   115 0.34733704880143E-06
   116 0.16883643920682E-05
   117 -.15584603925410E-04
   118 0.66784974556927E-04
   119 -.11344513743093E-03
   120 0.25724848322834E-04
   121 0.29983677629432E-06
   122 0.11200491857800E-04
   123 -.92936346404438E-04
   124 -.84598244454041E-05
   125 -.30823911643209E-04
   126 0.23534718924172E-03
   127 -.92830660904641E-04
   128 0.71179053717415E-04
   129 0.18800196818025E-06
   130 0.23791265003989E-05
   131 -.25671284685791E-05
   132 0.62603326368178E-05
   133 -.43479758349829E-05
   134 0.74098498407026E-06
   135 -.79251699645283E-06
   136 -.48477289556196E-05
   137 0.56402459520725E-05
   138 -.25033970612416E-04
   139 0.91784264374322E-05
   140 -.13037795454755E-05
   141 -.15007074680624E-06
   142 -.11400715876722E-06
   143 -.94329574948814E-07
   144 0.95600422186762E-06
   145 -.64588356351443E-06
   146 0.64497545488315E-06
   147 -.75466318709188E-06
   148 0.79884021766950E-06
   149 -.51841904975862E-06
   150 -.49520758251959E-06
   151 0.83688791440271E-03
   152 0.80243220342484E-03
   153 -.12246925060167E-02
   154 -.64712985877486E-04
   155 0.59431759866293E-03
   156 -.60391353799159E-03
   157 0.12644974942314E-04
   158 -.18770672506745E-03
   159 0.14029720444695E-04
   160 0.50071601963932E-05
   161 -.12248445837392E-04
   162 0.17486512899535E-05
   163 0.59000741671764E-04
   164 -.68112086525545E-03
   165 -.75076274726785E-03
   166 0.84202973773364E-04
   167 -.43487903527230E-04
   168 -.14225713476898E-03
   169 0.16162233680195E-04
   170 -.15485734891641E-03
   171 0.49545349490460E-03
   172 0.12060540778095E-04
   173 -.55333273923708E-05
   174 0.87945687337020E-05
   175 -.98608173022679E-05
   176 0.17614802467179E-03
   177 0.57994159786761E-03
   178 -.60238595699961E-05
   179 0.18688214956580E-04
   180 0.28246462458140E-04
   181 0.71810553973341E-03
   182 0.94757967431965E-03
   183 -.35770783662408E-02
   184 0.95279755137448E-03
   185 -.16475451113608E-03
   186 0.44524111236327E-04
 Sym=     3a   
 Ene= -.19038345671600E+02
 Spin= Alpha
 Occup= 2.000000
     1 0.89834393019754E-06
     2 -.21719040104021E-05
     3 -.44805415725807E-05
     4 -.38630071890191E-04
     5 0.26720618963777E-03
     6 -.33266609292439E-05
     7 -.66977676390378E-05
     8 0.36653515773428E-05
     9 0.18170091996219E-04
    10 0.29778468800184E-04
    11 -.19888824794379E-04
    12 -.61032053326672E-04
    13 -.79322056888671E-04
    14 0.64069397436801E-04
    15 0.16282400449052E-03
    16 0.14367736553365E-03
    17 -.15554531139540E-03
    18 -.15697065866721E-03
    19 -.42794310356188E-03
    20 0.56277997022961E-04
    21 0.20193169030586E-04
    22 -.30840038288612E-04
    23 0.10646869258025E-04
    24 -.66045507366320E-05
    25 -.26374247435305E-04
    26 0.93962802799639E-06
    27 -.50953170955890E-04
    28 0.73462037748420E-04
    29 -.22508866792530E-04
    30 -.86745594139729E-06
    31 0.44706566603771E-04
    32 0.14362550435991E-04
    33 0.18727619923027E-05
    34 -.40886800116817E-05
    35 -.27399328750131E-05
    36 0.57611294453460E-07
    37 0.13967601648507E-05
    38 0.33281557867022E-05
    39 -.25701851667336E-05
    40 0.40887797017682E-05
    41 0.34784991068725E-06
    42 -.98745611441950E-05
    43 0.64410127065401E-04
    44 0.10724027787276E-03
    45 -.64605792738162E-04
    46 0.23232253520157E-03
    47 -.94952103020611E-03
    48 0.73310986820615E-05
    49 -.73745739948239E-05
    50 -.11575368764295E-04
    51 -.38589544027502E-04
    52 0.75153524836235E-04
    53 -.56424322761094E-04
    54 0.49321068731927E-03
    55 0.81053045922609E-04
    56 -.39116410942110E-03
    57 0.12453948106569E-04
    58 -.31955284822742E-05
    59 -.92584196242946E-05
    60 0.10554807596001E-04
    61 0.91342464763874E-05
    62 -.57376079539436E-07
    63 -.33241417340981E-04
    64 0.69358545429699E-05
    65 0.26305562798011E-04
    66 -.27486779286271E-04
    67 -.17981037812323E-04
    68 0.42658897147502E-04
    69 -.46061349748649E-06
    70 -.15734545609458E-05
    71 0.82677174369541E-06
    72 -.11956446404859E-05
    73 -.22494697810494E-05
    74 0.17427126198285E-05
    75 0.18136224955261E-05
    76 0.43604805957186E-05
    77 -.28519433122959E-05
    78 0.10469459897683E-05
    79 0.43538605697737E+00
    80 0.63977654051546E+00
    81 0.33236507422621E-01
    82 -.21949977553281E-01
    83 0.10960439618605E-01
    84 -.35266498645246E-05
    85 0.10914466754049E-02
    86 0.11770094202363E-02
    87 0.67619252334791E-04
    88 -.18585864153959E-02
    89 -.19893581397811E-02
    90 -.28077401625004E-03
    91 0.11337197064142E-02
    92 0.97921519832988E-03
    93 0.51719644308054E-04
    94 -.32871719929384E-04
    95 -.18847924378671E-04
    96 0.37100780868608E-04
    97 -.23515338774303E-04
    98 0.66290869373469E-04
    99 -.26660620007318E-03
   100 0.17336911493550E-03
   101 0.93237085137688E-04
   102 -.17205638367731E-03
   103 0.11499584233165E-03
   104 -.30940656089458E-03
   105 0.24809146663221E-05
   106 0.39583813704130E-04
   107 0.41900142492970E-04
   108 -.30434749932851E-04
   109 -.49588734533507E-04
   110 -.60529060903634E-04
   111 0.27106253628687E-04
   112 -.35185244171664E-05
   113 0.43141207749088E-05
   114 -.68259342051685E-05
   115 -.45504495658632E-04
   116 -.57427416820127E-04
   117 -.74661034482168E-04
   118 0.11257409842143E-03
   119 0.50885736874536E-03
   120 -.17305537972621E-04
   121 0.29266895571225E-04
   122 -.31973674419637E-04
   123 0.89417917113211E-04
   124 -.14775440425995E-03
   125 0.14477793764884E-03
   126 0.30212470271854E-03
   127 -.37317223228231E-03
   128 -.14793525600659E-03
   129 -.27298072749999E-05
   130 -.10194424760082E-04
   131 0.12924232035082E-04
   132 0.11998577790674E-04
   133 -.46060066482249E-05
   134 0.55407093766946E-05
   135 0.48074911563409E-05
   136 0.43622983938808E-04
   137 -.48430475095149E-04
   138 -.60761768740063E-04
   139 0.25924582917561E-04
   140 -.35599066763315E-04
   141 -.20042930415096E-06
   142 -.70044330626390E-06
   143 -.46460019541175E-05
   144 0.57590658913213E-06
   145 0.47306300803465E-06
   146 0.19553367251162E-05
   147 -.30700245987341E-06
   148 0.46668030027983E-06
   149 0.42779289906859E-05
   150 -.50481164870578E-05
   151 -.38843853939661E-04
   152 0.53425005181660E-03
   153 0.26215381959540E-03
   154 -.95955390747683E-04
   155 0.41327607026996E-04
   156 -.13129658882253E-03
   157 0.67599639103966E-04
   158 -.85143789656956E-03
   159 -.45095237272792E-03
   160 0.37136780568125E-04
   161 -.20615218177369E-04
   162 -.15438411506625E-03
   163 0.78119182605831E-03
   164 0.12648964264832E-02
   165 -.23565974430961E-02
   166 -.73735707198574E-03
   167 -.56373111732629E-03
   168 -.31503804824120E-03
   169 0.19019774946399E-06
   170 0.41743247081551E-04
   171 0.46829533412285E-03
   172 0.69223742910282E-05
   173 -.62485592138162E-05
   174 0.22203452797066E-04
   175 0.74834347913844E-03
   176 0.11491770434144E-02
   177 -.27892087570631E-02
   178 0.77463888246810E-03
   179 -.29099643267356E-03
   180 -.53903208761752E-03
   181 -.17153685838673E-04
   182 0.53376841673421E-03
   183 0.49211735534293E-03
   184 -.10039933772349E-05
   185 -.65609967031319E-04
   186 0.41555173540365E-05
 Sym=     4a   
 Ene= -.19017272228500E+02
 Spin= Alpha
 Occup= 2.000000
     1 -.14205883281944E-05
     2 0.27666019431449E-05
     3 0.92103181469959E-05
     4 -.73422677594219E-04
     5 0.25114137493285E-03
     6 -.67664369624128E-05
     7 0.44134802118576E-05
     8 -.18320083508698E-06
     9 0.32499640809354E-04
    10 -.20657204239899E-04
    11 -.22156625098700E-05
    12 -.93496645245267E-04
    13 0.58604167086437E-04
    14 0.14410928889885E-04
    15 0.19920665126532E-03
    16 -.12014603065135E-03
    17 -.41703283748492E-04
    18 -.38600915599683E-03
    19 0.25570952422028E-03
    20 -.26790969524442E-03
    21 0.55010414602992E-05
    22 -.98740254669488E-05
    23 0.43729840066495E-05
    24 0.14359362792787E-05
    25 -.15044821583155E-04
    26 0.17904119436545E-04
    27 -.35581414829619E-04
    28 0.11225467323858E-04
    29 0.24355947505761E-04
    30 -.29445217306932E-05
    31 0.31083496971529E-04
    32 -.50116836152884E-04
    33 0.48721614584649E-06
    34 0.22853915652365E-05
    35 0.74424309465160E-05
    36 0.32978209278549E-06
    37 -.12672536354116E-05
    38 -.60863486919106E-05
    39 -.98345114589441E-06
    40 -.17989209016325E-05
    41 -.38987202166441E-05
    42 -.20751697028639E-06
    43 -.45388990105311E-06
    44 -.80148183387307E-06
    45 0.66471688804871E-05
    46 0.44336898905983E-04
    47 -.53011267807207E-03
    48 -.19487198472423E-04
    49 -.76056272626881E-05
    50 -.18231607355015E-04
    51 0.10894753462490E-03
    52 0.27014441303696E-04
    53 0.53584942154642E-04
    54 0.64732314547252E-04
    55 -.15358335341450E-04
    56 -.10675066060613E-03
    57 -.13726641923187E-05
    58 0.17322433180003E-05
    59 -.35957912568154E-06
    60 -.18901443773503E-05
    61 -.19923059032786E-05
    62 0.39144150848547E-06
    63 -.11131766216168E-04
    64 0.38719601576333E-05
    65 0.72598060585344E-05
    66 0.97353022464195E-05
    67 0.41414265831276E-06
    68 0.44657811059612E-05
    69 0.24808329633207E-05
    70 -.72866267421984E-06
    71 -.10661609340912E-05
    72 -.15138341821475E-05
    73 -.24317519681893E-06
    74 0.13766928114188E-05
    75 -.18145525059369E-05
    76 0.12207787601523E-05
    77 0.53712182730842E-07
    78 0.87730300561887E-07
    79 0.43533557503778E-04
    80 0.75204760256575E-04
    81 -.54034669389514E-04
    82 0.18855156742590E-03
    83 -.84970873900535E-03
    84 0.52468399951932E-05
    85 -.15811195993698E-06
    86 -.17336830591094E-04
    87 -.10046358048283E-03
    88 -.41846958514105E-04
    89 0.65522454679608E-05
    90 0.74809107271569E-04
    91 -.27788485677970E-03
    92 -.58126387595509E-03
    93 0.36369283748414E-05
    94 0.62247078128135E-05
    95 -.98616361876548E-05
    96 -.11686874168134E-04
    97 -.36436863907192E-05
    98 0.77762160077226E-05
    99 -.20892376638803E-04
   100 -.16505111785810E-04
   101 0.37397488424613E-04
   102 0.62029108324952E-05
   103 0.58376184075922E-05
   104 -.54420130706387E-04
   105 -.62021416201924E-09
   106 0.36040703041794E-05
   107 0.92238593810855E-06
   108 -.75637104965704E-06
   109 -.38621455028158E-05
   110 -.58289314167246E-06
   111 0.75720315427317E-06
   112 -.97322221468427E-06
   113 -.65461745378792E-06
   114 -.34496306792909E-05
   115 0.43538076442210E+00
   116 0.63978931353367E+00
   117 0.33186213590593E-01
   118 -.21828105119507E-01
   119 0.10306088586779E-01
   120 0.42077181581764E-03
   121 -.88844310715369E-03
   122 0.13116476859570E-02
   123 -.73122456000503E-03
   124 0.15429771157243E-02
   125 -.23116586629426E-02
   126 0.24038476694881E-03
   127 -.59899056620278E-03
   128 0.11131833952362E-02
   129 -.34979247321217E-04
   130 0.11020249677130E-05
   131 0.33877222353504E-04
   132 -.83183848700922E-04
   133 -.28695668281678E-04
   134 -.22441369985569E-05
   135 0.17190644628707E-03
   136 -.40887871192978E-06
   137 -.17149756757514E-03
   138 0.42553472957123E-03
   139 0.15323325028329E-03
   140 -.10377776279570E-04
   141 0.13541908688396E-05
   142 0.12933060316024E-04
   143 -.33635645595152E-04
   144 -.58257982677885E-04
   145 0.25495422515479E-04
   146 0.19979090276739E-04
   147 0.56441144975544E-04
   148 -.42846943729721E-04
   149 0.25147863733972E-04
   150 0.16279050909516E-04
   151 -.65705989326997E-05
   152 0.10610761493257E-03
   153 -.49827785244001E-04
   154 0.79543466455645E-05
   155 0.14907755077009E-04
   156 -.71670337459012E-05
   157 0.75295574333754E-03
   158 0.17107032165554E-02
   159 -.24984379530560E-02
   160 -.64094495324813E-03
   161 0.86370679143666E-03
   162 -.24282026055127E-04
   163 -.38022017477925E-04
   164 0.51600169074467E-03
   165 0.18893593289409E-03
   166 -.15594036876587E-03
   167 -.77355415000797E-05
   168 -.39655700731785E-04
   169 0.74349468690363E-03
   170 0.15599699467730E-02
   171 -.28600471783456E-02
   172 0.31554328524109E-03
   173 -.15627387683206E-03
   174 -.99978480782263E-03
   175 -.13132722658948E-04
   176 0.49541035621307E-03
   177 0.48084008781608E-03
   178 0.29368966479121E-04
   179 0.65645832790377E-04
   180 -.15799058229272E-04
   181 -.81170973622812E-05
   182 0.13661654561855E-03
   183 0.59965296972154E-03
   184 0.53811609296178E-04
   185 -.39123882056307E-04
   186 -.30610993547104E-04
 Sym=     5a   
 Ene= -.92681127764184E+01
 Spin= Alpha
 Occup= 2.000000
     1 -.29288893914070E+00
     2 -.21827103039538E+00
     3 0.82939569060251E+00
     4 0.29212675546765E-01
     5 -.10894520798258E-01
     6 0.59894144951819E-03
     7 -.11854751149206E-03
     8 -.30261421057402E-03
     9 0.45826280567019E-03
    10 -.73088572546876E-04
    11 -.31146251894525E-03
    12 -.24085381080240E-03
    13 0.15210138218922E-04
    14 0.30579861691924E-03
    15 0.81970057551874E-03
    16 -.75008213331484E-04
    17 -.82351489009511E-03
    18 -.21940670413019E-02
    19 0.22603274393070E-03
    20 0.16833447646689E-02
    21 0.81505545165457E-04
    22 -.76098288141063E-04
    23 -.54072570243947E-05
    24 -.66633271446034E-05
    25 -.43269750382622E-04
    26 0.33866615084153E-04
    27 -.19251664447914E-03
    28 0.17553002530709E-03
    29 0.16986619172046E-04
    30 0.13063027200292E-04
    31 0.10476478201561E-03
    32 -.74957024129009E-04
    33 -.13632410525971E-04
    34 0.78226466138923E-05
    35 0.18447699723628E-05
    36 0.55747680673571E-05
    37 -.87834221620681E-05
    38 -.64635011399018E-05
    39 0.12715029912595E-04
    40 -.17117595935049E-05
    41 0.39884825032696E-05
    42 -.82997709180680E-05
    43 -.94537018931967E-06
    44 0.24700603902025E-04
    45 -.28494590227539E-03
    46 0.11779901777537E-02
    47 -.32988688287498E-02
    48 -.59424716217581E-04
    49 -.74662113250320E-04
    50 0.10885172248991E-05
    51 0.21649281797708E-03
    52 0.26112418493104E-03
    53 0.53892707661562E-04
    54 0.13820223790322E-02
    55 -.10243831272192E-02
    56 0.15277717722036E-03
    57 0.39094700992201E-04