[Molden Format]
[Title]
                                                                                
[Atoms] AU
 ti    1   22 0.53402171420280E-01 0.51628266193040E-01 0.10707252061090E+00
 o     2    8 0.12091874959885E+01 -.30017191253461E+01 0.22084800594771E+01
 o     3    8 -.31118000388433E+01 -.11212989576121E+01 -.19632360085495E+01
 h     4    1 -.42019988740756E+01 -.93102727372960E-01 -.26443682240769E+01
 o     5    8 -.93297395028771E+00 0.29473417405171E+01 0.15574189178898E+01
 h     6    1 -.18147801961751E+01 0.41251128835332E+01 0.43498489918955E+00
 o     7    8 0.27455981467486E+01 0.96076955142247E+00 -.20359733132981E+01
 h     8    1 0.46606997342797E+01 0.11809233758927E+01 -.15464668471015E+01
 h     9    1 0.16179641923471E+00 -.44159281946981E+01 0.22419052428386E+01
[GTO]
    1 0
 s    6 1.00
 0.42961512185000E+05 0.17843194150525E-02
 0.64509759169000E+04 0.13666998293913E-01
 0.14677210915000E+04 0.67657531418607E-01
 0.41420997355000E+03 0.23415664474124E+00
 0.13448715840000E+03 0.47131888052172E+00
 0.46122209796000E+02 0.35503505357522E+00
 s    3 1.00
 0.89447762543000E+02 -.10443687268854E+00
 0.10223346060000E+02 0.61711202546388E+00
 0.41353774271000E+01 0.45666537532827E+00
 s    3 1.00
 0.67896181452000E+01 -.21192816449190E+00
 0.11106730691000E+01 0.68918538471225E+00
 0.47565975578000E+00 0.43416009293305E+00
 s    1 1.00
 0.65986956934000E-01 0.10000000000000E+01
 s    1 1.00
 0.25210342250000E-01 0.10000000000000E+01
 p    5 1.00
 0.52203684782000E+03 0.95451019665738E-02
 0.12268649489000E+03 0.69873133119453E-01
 0.38572903611000E+02 0.26415737257776E+00
 0.13672169319000E+02 0.50888293752065E+00
 0.50118529359000E+01 0.33394126738673E+00
 p    3 1.00
 0.24131928282000E+01 0.32564830898490E+00
 0.93252270050000E+00 0.56003132938245E+00
 0.35429058390000E+00 0.23042934995196E+00
 p    1 1.00
 0.10156100000000E+00 0.10000000000000E+01
 d    4 1.00
 0.23465125957000E+02 0.32308575502655E-01
 0.63332593832000E+01 0.16797459661068E+00
 0.20766489946000E+01 0.42993853242019E+00
 0.69027361954000E+00 0.59228850253611E+00
 d    1 1.00
 0.21088738554000E+00 0.10000000000000E+01
 f    1 1.00
 0.56200000000000E+00 0.10000000000000E+01
 
    2 0
 s    5 1.00
 0.22661767785000E+04 -.53893503921743E-02
 0.34087010191000E+03 -.40234721388960E-01
 0.77363135167000E+02 -.18008184205526E+00
 0.21479644940000E+02 -.46828857657651E+00
 0.66589433124000E+01 -.44692617160187E+00
 s    1 1.00
 0.80975975668000E+00 0.10000000000000E+01
 s    1 1.00
 0.25530772234000E+00 0.10000000000000E+01
 p    3 1.00
 0.17721504317000E+02 0.62630248763161E-01
 0.38635505440000E+01 0.33331138482352E+00
 0.10480920883000E+01 0.74148638308122E+00
 p    1 1.00
 0.27641544411000E+00 0.10000000000000E+01
 d    1 1.00
 0.12000000000000E+01 0.10000000000000E+01
 
    3 0
 s    5 1.00
 0.22661767785000E+04 -.53893503921743E-02
 0.34087010191000E+03 -.40234721388960E-01
 0.77363135167000E+02 -.18008184205526E+00
 0.21479644940000E+02 -.46828857657651E+00
 0.66589433124000E+01 -.44692617160187E+00
 s    1 1.00
 0.80975975668000E+00 0.10000000000000E+01
 s    1 1.00
 0.25530772234000E+00 0.10000000000000E+01
 p    3 1.00
 0.17721504317000E+02 0.62630248763161E-01
 0.38635505440000E+01 0.33331138482352E+00
 0.10480920883000E+01 0.74148638308122E+00
 p    1 1.00
 0.27641544411000E+00 0.10000000000000E+01
 d    1 1.00
 0.12000000000000E+01 0.10000000000000E+01
 
    4 0
 s    3 1.00
 0.13010701000000E+02 0.33485484812989E-01
 0.19622572000000E+01 0.23472187088125E+00
 0.44453796000000E+00 0.81377028525955E+00
 s    1 1.00
 0.12194962000000E+00 0.10000000000000E+01
 p    1 1.00
 0.80000000000000E+00 0.10000000000000E+01
 
    5 0
 s    5 1.00
 0.22661767785000E+04 -.53893503921743E-02
 0.34087010191000E+03 -.40234721388960E-01
 0.77363135167000E+02 -.18008184205526E+00
 0.21479644940000E+02 -.46828857657651E+00
 0.66589433124000E+01 -.44692617160187E+00
 s    1 1.00
 0.80975975668000E+00 0.10000000000000E+01
 s    1 1.00
 0.25530772234000E+00 0.10000000000000E+01
 p    3 1.00
 0.17721504317000E+02 0.62630248763161E-01
 0.38635505440000E+01 0.33331138482352E+00
 0.10480920883000E+01 0.74148638308122E+00
 p    1 1.00
 0.27641544411000E+00 0.10000000000000E+01
 d    1 1.00
 0.12000000000000E+01 0.10000000000000E+01
 
    6 0
 s    3 1.00
 0.13010701000000E+02 0.33485484812989E-01
 0.19622572000000E+01 0.23472187088125E+00
 0.44453796000000E+00 0.81377028525955E+00
 s    1 1.00
 0.12194962000000E+00 0.10000000000000E+01
 p    1 1.00
 0.80000000000000E+00 0.10000000000000E+01
 
    7 0
 s    5 1.00
 0.22661767785000E+04 -.53893503921743E-02
 0.34087010191000E+03 -.40234721388960E-01
 0.77363135167000E+02 -.18008184205526E+00
 0.21479644940000E+02 -.46828857657651E+00
 0.66589433124000E+01 -.44692617160187E+00
 s    1 1.00
 0.80975975668000E+00 0.10000000000000E+01
 s    1 1.00
 0.25530772234000E+00 0.10000000000000E+01
 p    3 1.00
 0.17721504317000E+02 0.62630248763161E-01
 0.38635505440000E+01 0.33331138482352E+00
 0.10480920883000E+01 0.74148638308122E+00
 p    1 1.00
 0.27641544411000E+00 0.10000000000000E+01
 d    1 1.00
 0.12000000000000E+01 0.10000000000000E+01
 
    8 0
 s    3 1.00
 0.13010701000000E+02 0.33485484812989E-01
 0.19622572000000E+01 0.23472187088125E+00
 0.44453796000000E+00 0.81377028525955E+00
 s    1 1.00
 0.12194962000000E+00 0.10000000000000E+01
 p    1 1.00
 0.80000000000000E+00 0.10000000000000E+01
 
    9 0
 s    3 1.00
 0.13010701000000E+02 0.33485484812989E-01
 0.19622572000000E+01 0.23472187088125E+00
 0.44453796000000E+00 0.81377028525955E+00
 s    1 1.00
 0.12194962000000E+00 0.10000000000000E+01
 p    1 1.00
 0.80000000000000E+00 0.10000000000000E+01
 
[MO]
 Sym=     1a   
 Ene= -.17925030040196E+03
 Spin= Alpha
 Occup= 2.000000
     1 0.99572528870233E+00
     2 0.14082884373144E-01
     3 -.32166864070882E-02
     4 0.15625125968592E-02
     5 -.61214258637303E-03
     6 -.19434868960412E-05
     7 0.13143213117127E-04
     8 0.27651266286367E-05
     9 0.11162892298399E-04
    10 -.41057368651878E-04
    11 -.56623327952717E-05
    12 -.14108999210219E-03
    13 -.46851894514774E-03
    14 -.90209311579317E-04
    15 -.51663789390666E-05
    16 -.69732173789160E-05
    17 0.12139596317983E-04
    18 0.25218633912066E-05
    19 -.13193210439327E-04
    20 0.71092165263612E-05
    21 0.56177761496898E-04
    22 -.24775426673564E-04
    23 -.31402334823335E-04
    24 0.25320679700332E-04
    25 0.14680445947548E-03
    26 -.98009340910439E-04
    27 -.85319694488552E-05
    28 0.46269342593324E-05
    29 0.54263181178171E-05
    30 0.14347223524781E-04
    31 -.14316479669098E-07
    32 -.16689463219263E-04
    33 -.29003853230257E-05
    34 -.61933672391048E-05
    35 0.94092935118762E-05
    36 -.12772228403278E-04
    37 0.69449999413395E-05
    38 0.11625608935953E-03
    39 -.41864194437530E-03
    40 0.53284344157553E-05
    41 -.88439086317354E-05
    42 -.11893408114319E-05
    43 0.42664936607156E-04
    44 -.12770219992998E-03
    45 0.11179932280953E-03
    46 0.74111644569500E-05
    47 -.11757171365975E-04
    48 0.43460069090250E-05
    49 -.64462351949090E-06
    50 -.11006662082813E-05
    51 0.10278754653256E-04
    52 0.13275816229307E-04
    53 0.17376933064359E-03
    54 -.57254448608526E-03
    55 0.12744354219796E-04
    56 -.13110801117857E-04
    57 0.10292556222076E-04
    58 -.17281814671908E-03
    59 -.58982849835848E-04
    60 -.12411144468497E-03
    61 -.70577653441131E-05
    62 0.31356563347649E-05
    63 0.39221090093482E-05
    64 0.97944079940446E-06
    65 -.16651465131111E-04
    66 0.90231657571774E-06
    67 0.77346858853237E-04
    68 -.59564195152841E-04
    69 0.67625842376152E-05
    70 -.90770315637442E-05
    71 0.73800908580854E-05
    72 -.19651114481888E-04
    73 -.15337279395958E-03
    74 0.25197004215698E-03
    75 -.44689921803702E-04
    76 0.97483714400805E-04
    77 0.42502408343879E-04
    78 0.14562174613484E-03
    79 -.32324343093285E-03
    80 -.12702827447277E-03
    81 -.16995436798331E-04
    82 0.15360432598852E-04
    83 0.16350041994796E-05
    84 -.90977541053751E-05
    85 -.48165384386263E-05
    86 0.21561791792362E-04
    87 0.22919789514674E-04
    88 0.93557108656444E-05
    89 -.10379557137350E-04
    90 0.74556892196753E-04
    91 0.82624997491368E-04
    92 -.83162417976725E-05
    93 -.20760450495789E-04
    94 -.13477240244455E-03
    95 0.62875445041100E-04
    96 0.11200895625348E-04
    97 -.55013332452686E-04
    98 -.21702462365547E-03
    99 -.23534192548725E-04
   100 0.90425290165324E-04
   101 -.12086351128372E-04
   102 0.45507680919321E-05
   103 0.75355830364399E-05
   104 0.48907056035450E-05
   105 -.17067466854379E-04
   106 -.52947626000868E-05
   107 0.11356769140298E-03
   108 0.29083751580951E-04
   109 -.30990553892693E-04
   110 0.84965698167063E-05
   111 -.64021469417425E-04
   112 0.58189056591468E-04
   113 -.15292385215154E-03
   114 0.20671085138576E-04
   115 -.24566082236765E-04
   116 0.19693380259374E-04
 Sym=     2a   
 Ene= -.20142969080200E+02
 Spin= Alpha
 Occup= 2.000000
     1 -.32607068514524E+00
     2 0.10407972557811E+01
     3 0.20341000707025E-01
     4 -.51035990032272E-02
     5 0.20790739230671E-02
     6 0.21680248260959E-03
     7 0.63768091046892E-03
     8 0.23066732285920E-03
     9 -.20342141012971E-04
    10 0.24762044685055E-03
    11 0.50417072001869E-04
    12 0.56743642726262E-03
    13 0.19234791011602E-02
    14 0.29146884155703E-03
    15 0.12441077824546E-04
    16 0.85831032262022E-05
    17 -.21024181050748E-04
    18 -.15123832896393E-05
    19 0.73843699853299E-04
    20 -.20258029443666E-04
    21 -.20809417412015E-03
    22 0.16653881782757E-03
    23 0.41555356292583E-04
    24 -.13138801608483E-03
    25 -.61312130906920E-03
    26 0.36536925543029E-03
    27 0.33283764041371E-04
    28 -.12464634058397E-04
    29 -.24400174212158E-04
    30 -.63814451135252E-04
    31 -.16092619042166E-05
    32 0.27359238983177E-04
    33 0.19159595769111E-04
    34 0.18332323345758E-04
    35 0.53770299375566E-05
    36 0.12751272277335E-04
    37 -.90346426941786E-05
    38 -.23161195803867E-03
    39 0.11621056652626E-02
    40 -.33861731945636E-04
    41 0.88129300787420E-04
    42 -.37681632923440E-04
    43 -.49822353068123E-04
    44 0.28312380750470E-03
    45 -.22054133006959E-03
    46 -.18666384465837E-04
    47 0.30485525358816E-04
    48 -.11819140892979E-04
    49 0.62358580203748E-05
    50 -.10240520507576E-04
    51 -.12583577586450E-04
    52 -.18631181985640E-04
    53 -.46252678049730E-03
    54 0.18408576373878E-02
    55 0.15513781893038E-04
    56 0.66285376837528E-04
    57 0.37607034733233E-05
    58 0.43871967819141E-03
    59 0.12914901269056E-03
    60 0.31456184785015E-03
    61 0.20210992389689E-04
    62 -.10240260067320E-04
    63 -.99707323223682E-05
    64 -.10366201048541E-04
    65 0.42167997699221E-04
    66 -.96494366244862E-05
    67 -.27782792230119E-03
    68 0.18476349822434E-03
    69 0.45298987120656E-06
    70 0.66656471138171E-04
    71 -.62448619963472E-05
    72 0.30655775489912E-04
    73 0.74897459436588E-03
    74 -.15727419643928E-02
    75 0.16129088448672E-03
    76 -.33915465992217E-03
    77 -.14562353188748E-03
    78 -.61448829212238E-03
    79 0.14470214369240E-02
    80 0.68170567736589E-03
    81 0.88753236130349E-04
    82 -.95916822542111E-04
    83 0.71635864117627E-05
    84 0.66902697968819E-04
    85 0.26426942365917E-04
    86 -.11459438214134E-03
    87 0.12762353363955E-04
    88 -.10738135380786E-03
    89 0.50959606893947E-04
    90 -.29703783607907E-03
    91 -.29193400593480E-03
    92 0.15079550624096E-04
    93 0.29548910911450E-03
    94 -.59315521675438E-04
    95 -.25560185674113E-03
    96 -.45473259445011E-04
    97 0.21371831690347E-03
    98 0.10426630303560E-02
    99 0.15733459970999E-03
   100 -.55156740648939E-03
   101 0.17327407336506E-04
   102 0.96383244286439E-05
   103 -.26965731765150E-04
   104 -.35626312991658E-04
   105 0.10010878695409E-03
   106 0.33751609064816E-04
   107 -.37931408827610E-03
   108 -.15007831183899E-03
   109 0.84402446314772E-04
   110 -.39153816552337E-04
   111 0.25422158340727E-03
   112 -.16037815788364E-03
   113 0.56763292059269E-03
   114 -.93267241202299E-04
   115 0.12581091864665E-03
   116 -.10799780530500E-03
 Sym=     3a   
 Ene= -.19242124423558E+02
 Spin= Alpha
 Occup= 2.000000
     1 -.38944810800176E-04
     2 0.17536007113458E-03
     3 -.16104744176157E-03
     4 -.67303437202226E-02
     5 0.15413781284970E-02
     6 -.45668514536561E-04
     7 0.13625589135451E-03
     8 0.82224172549228E-04
     9 0.21871683065997E-03
    10 -.65150111382877E-03
    11 -.39465416393739E-03
    12 0.20358374139554E-02
    13 -.60884186300700E-02
    14 -.23099849148365E-02
    15 0.44986895436127E-04
    16 -.31976704660663E-04
    17 -.13010190775463E-04
    18 0.36629254301845E-04
    19 0.67625732315351E-05
    20 -.65797632456494E-05
    21 0.42699874582874E-03
    22 -.85135593145386E-03
    23 0.42435718562512E-03
    24 0.50887145580831E-03
    25 0.35966003866642E-03
    26 -.11024561423370E-02
    27 0.35423240575573E-04
    28 0.24690693263014E-04
    29 -.58325970314565E-04
    30 -.52258104058728E-04
    31 -.34239744238248E-04
    32 -.67209263486616E-05
    33 0.47328397125417E-05
    34 0.11137031096310E-05
    35 0.84973427034863E-04
    36 -.32147503543118E-04
    37 0.39137441085912E-04
    38 0.91691796024401E-04
    39 -.63343841425933E-03
    40 0.47543733308755E-04
    41 -.68045298136466E-04
    42 -.13637233591078E-03
    43 -.54715064182263E-04
    44 -.91013736231266E-04
    45 0.64127964379876E-03
    46 0.69431405004548E-05
    47 -.27527428316167E-04
    48 0.20584287815712E-04
    49 0.86979910602657E-05
    50 -.12314254417029E-04
    51 0.21022698701561E-04
    52 0.66866012254890E-04
    53 -.12383541182416E-03
    54 0.28810069961218E-03
    55 0.56593011861376E-05
    56 -.16105339242151E-03
    57 -.11888277638224E-03
    58 -.37995660802311E-03
    59 0.76727974912621E-03
    60 0.29589572924962E-03
    61 -.14935612462294E-04
    62 0.24727606398193E-04
    63 -.97919939358993E-05
    64 -.40884546752412E-04
    65 0.16492128090785E-04
    66 0.11054229411517E-04
    67 -.50360121169332E-03
    68 0.61864956910843E-03
    69 0.64209585008020E-04
    70 0.65938852362076E-04
    71 -.41917187291383E-04
    72 0.98897457011668E+00
    73 -.39887560299268E-01
    74 0.21591701140596E-01
    75 0.63864237639281E-03
    76 -.30057647419339E-03
    77 0.18469655557507E-02
    78 0.14710444888669E-02
    79 -.38672141933080E-02
    80 -.16814021240955E-02
    81 0.74416589304244E-04
    82 -.49650647915906E-04
    83 -.24765941388339E-04
    84 0.31095611341130E-03
    85 -.32892237365579E-03
    86 0.47395842862373E-03
    87 0.17972199360046E-02
    88 -.70202039751934E-03
    89 0.14419224518168E-02
    90 -.18033425437838E-02
    91 0.20631499402467E-02
    92 0.90212520185930E-03
    93 -.32600577042369E-03
    94 0.50740626814056E-03
    95 0.72324118468923E-04
    96 -.20495466240247E-03
    97 -.71819041473406E-04
    98 -.12701107606037E-03
    99 0.93151507197255E-03
   100 0.26157792752281E-03
   101 -.89310630791246E-05
   102 0.65137479649554E-05
   103 0.24173151141692E-05
   104 -.24561837920097E-04
   105 -.29819759961042E-05
   106 0.42737428875888E-04
   107 -.13189899917768E-03
   108 0.18454708744540E-03
   109 0.19106816081593E-04
   110 -.92628720389468E-04
   111 0.20216427592180E-04
   112 0.81585923299298E-04
   113 -.38387451721387E-03
   114 0.35787944725381E-04
   115 -.45616721696762E-04
   116 -.38405733719291E-04
 Sym=     4a   
 Ene= -.19225555908274E+02
 Spin= Alpha
 Occup= 2.000000
     1 -.17568135880490E-04
     2 0.13336238740220E-03
     3 0.19350768109830E-03
     4 -.69906843989058E-02
     5 0.16355199284898E-02
     6 0.10520313802284E-03
     7 0.25940087253744E-04
     8 -.70336615205479E-04
     9 -.47162238126977E-03
    10 -.10893466443575E-03
    11 0.30935628761156E-03
    12 -.47288255559324E-02
    13 -.25983185949509E-02
    14 0.40960623439136E-02
    15 -.16224347508819E-04
    16 0.27324993882537E-04
    17 -.11100646373718E-04
    18 -.12858481201674E-04
    19 0.77233548926896E-05
    20 0.14041976260372E-04
    21 -.58585493207900E-03
    22 0.57166446686720E-03
    23 0.14190465211802E-04
    24 -.58250456701443E-03
    25 0.14663315215544E-02
    26 0.35929675317103E-03
    27 -.70102819328985E-05
    28 -.14603238137700E-04
    29 -.17580371389847E-04
    30 0.90312509682785E-05
    31 0.12950269479360E-04
    32 0.31820817441476E-04
    33 0.37402919776130E-06
    34 0.66420304211496E-05
    35 -.82342741430418E-05
    36 0.96728382611433E-05
    37 0.35821336985980E-03
    38 -.14030063222755E-03
    39 -.14668361810787E-03
    40 -.15366013835311E-03
    41 0.93084499047279E-05
    42 0.10573053527413E-03
    43 0.75578787444783E-03
    44 -.20973453495737E-03
    45 -.24674015256734E-03
    46 0.57177222283109E-05
    47 -.31220398351207E-04
    48 0.25502676122896E-04
    49 0.28542975853751E-05
    50 -.20549283113683E-04
    51 0.17993787358897E-04
    52 0.25131401722526E-03
    53 -.14188681747788E-03
    54 0.32331025572541E-04
    55 -.16989119223246E-03
    56 -.62834911098647E-04
    57 0.11708202948349E-03
    58 0.30751825335082E-03
    59 0.22494182589091E-03
    60 -.64706289173025E-03
    61 -.10244357197743E-04
    62 0.78828429006467E-06
    63 0.94560729076787E-05
    64 -.46996192811005E-05
    65 -.12800674588655E-04
    66 -.31219784939574E-04
    67 -.17218831513361E-03
    68 0.12647140009400E-03
    69 -.79750187425272E-04
    70 0.25390058712237E-05
    71 0.85928498261211E-04
    72 -.96457320138561E-03
    73 -.32149763173915E-03
    74 0.66180810075339E-03
    75 -.19315847653069E-03
    76 -.12165327482684E-04
    77 0.11878288892188E-03
    78 0.74941459455713E-03
    79 0.19541075009250E-03
    80 -.55507238436051E-03
    81 0.89578418420718E-05
    82 -.71406405124392E-05
    83 -.18172013296326E-05
    84 -.61408468020087E-05
    85 -.38767427143078E-04
    86 -.11353129600120E-04
    87 -.21412403236648E-03
    88 0.64336860073476E-03
    89 -.23368796371725E-04
    90 -.40664101304387E-04
    91 -.65203674626361E-04
    92 0.98908109833277E+00
    93 -.39345439394968E-01
    94 0.21962194863501E-01
    95 -.71320690535951E-03
    96 0.89408946188299E-04
    97 -.12160150319989E-02
    98 -.34619224395104E-02
    99 -.10295620143655E-02
   100 0.28583167812693E-02
   101 -.37326283941287E-03
   102 0.15687749978244E-03
   103 0.21638533963043E-03
   104 -.45537168552248E-04
   105 -.28605049096319E-03
   106 -.57113721524438E-04
   107 0.96225411421466E-03
   108 -.10238458255184E-02
   109 -.22369042978308E-02
   110 -.20208345918542E-03
   111 -.90825744221880E-03
   112 0.24179492115813E-03
   113 -.39036864506476E-03
   114 -.25201958666757E-04
   115 0.43382738544591E-04
   116 0.86227736826753E-04
 Sym=     5a   
 Ene= -.19188738924133E+02
 Spin= Alpha
 Occup= 2.000000
     1 0.10421940798993E-04
     2 0.39115863491405E-04
     3 0.46467263154131E-03
     4 -.47017387426456E-02
     5 0.14813616524912E-02
     6 -.94046598257521E-05
     7 -.27103518737955E-04
     8 0.73522891338889E-05
     9 0.71633936110082E-04
    10 0.79054107163017E-04
    11 -.74933200769126E-05
    12 -.32546550898922E-02
    13 0.53466520471190E-02
    14 -.30338628295992E-02
    15 -.83851599806610E-05
    16 0.11789967904999E-04
    17 -.34048079243381E-05
    18 -.23819944439282E-04
    19 -.86602101349868E-05
    20 -.74021641466953E-04
    21 0.53831272215507E-03
    22 -.60407907599503E-03
    23 0.65766353839952E-04
    24 0.69694235695312E-03
    25 -.34573447966783E-03
    26 0.16403124682424E-02
    27 0.68702740117586E-04
    28 0.15586861658487E-04
    29 0.64650195869508E-04
    30 -.69053954065806E-04
    31 -.67078235649557E-04
    32 0.26765803009895E-04
    33 -.23120444220249E-04
    34 0.46166266314999E-04
    35 -.11350314264363E-03
    36 0.72097645401020E-04
    37 0.98897752925321E+00
    38 -.40147423143129E-01
    39 0.20213822736962E-01
    40 0.19450307066539E-02
    41 0.10983990377938E-02
    42 0.65481344914202E-03
    43 -.10007469308520E-02
    44 0.41538403593423E-02
    45 -.26501705860320E-02
    46 -.52983280831946E-04
    47 -.32615402263416E-03
    48 0.37913730346610E-03
    49 -.72930629959547E-03
    50 0.10392303787262E-03
    51 -.10581494412126E-03
    52 0.17418040835047E-02
    53 -.55478811031044E-04
    54 -.73266892288903E-03
    55 0.39931224728838E-04
    56 0.13624270421623E-03
    57 -.23895826388909E-04
    58 -.18186694672243E-03
    59 -.94342894073534E-03
    60 0.64441424550640E-04
    61 -.26600872358765E-04
    62 0.36009861193053E-05
    63 0.22999886239459E-04
    64 0.30746026540499E-04
    65 -.49019176556078E-04
    66 0.94623767390468E-05
    67 0.62060316027455E-03
    68 -.57982789027935E-03
    69 0.11008675834454E-03
    70 -.23373094574139E-04
    71 0.26472461175161E-04
    72 -.39618846242385E-04
    73 0.80476569220854E-04
    74 -.99431844858643E-03
    75 -.21234748515476E-04
    76 -.10609847253615E-04
    77 -.96052397746928E-04
    78 -.37202350227050E-04
    79 0.39354777855013E-03
    80 0.36277959208555E-03
    81 -.27233924579198E-04
    82 -.24803663983625E-04
    83 0.52037588562823E-04
    84 0.12108069943766E-04
    85 -.18245690383663E-04
    86 0.38022659339451E-04
    87 0.28798964447166E-03
    88 -.10970719279533E-02
    89 0.17547790606433E-04
    90 0.11891637388488E-04
    91 0.54967200466089E-04
    92 -.40953689785760E-03
    93 -.29552904001923E-03
    94 0.57836211821445E-03
    95 -.30597635830691E-04
    96 0.21040528383862E-03
    97 -.15162389332317E-03
    98 0.29132282794061E-03
    99 -.73389796203304E-03
   100 0.56182683889532E-03
   101 0.40488899367487E-04
   102 -.19686819488146E-04
   103 -.20802079879341E-04
   104 -.13033271366716E-04
   105 -.10174571388931E-05
   106 -.34501693999876E-04
   107 -.31680560990681E-03
   108 0.37339538152774E-03
   109 0.54944860135170E-04
   110 0.48304843961006E-04
   111 0.49432471774064E-04
   112 0.30002605863149E-02
   113 -.16123624360240E-02
   114 0.24821292328059E-02
   115 0.26840968054498E-02
   116 0.25024235473168E-03
 Sym=     6a   
 Ene= -.19183140401501E+02
 Spin= Alpha
 Occup= 2.000000
     1 0.24544014717325E-04
     2 0.89233263518220E-06
     3 0.63301044321921E-03
     4 -.50469016300503E-02
     5 0.93682812673697E-03
     6 -.91123203385388E-05
     7 0.60614343754467E-05
     8 -.10792036978965E-04
     9 -.67120808101580E-05
    10 -.52062498672023E-04
    11 0.25292366653908E-04
    12 0.51608986452352E-02
    13 0.22313265780675E-02
    14 0.25315023387144E-02
    15 0.15073482857787E-04
    16 0.85646104382256E-06
    17 -.15929943901609E-04
    18 0.28049743597767E-04
    19 0.87173493858110E-04
    20 0.21673723550758E-04
    21 -.69692047004614E-03
    22 0.49722582393316E-03
    23 0.19969464611299E-03
    24 -.67322498021423E-03
    25 -.15133306622151E-02
    26 -.52017659596814E-03
    27 0.13325793115914E-04
    28 -.74325557785407E-04
    29 -.69615788006983E-04
    30 -.50369855926724E-04
    31 0.83676796019062E-04
    32 0.12247922387863E-03
    33 0.32491428369955E-04
    34 0.16041403785194E-04
    35 -.29079843304130E-04
    36 0.93609539535488E-04
    37 -.17732217864412E-02
    38 -.86630488358931E-04
    39 0.10343278539014E-03
    40 0.14467639251479E-03
    41 -.41291409799369E-04
    42 0.12901123432780E-03
    43 -.56582216588314E-03
    44 -.20640518670070E-03
    45 -.33028302541648E-03
    46 0.27065307122279E-06
    47 0.20142415864330E-04
    48 -.20413068935553E-04
    49 0.38640806981681E-04
    50 0.19664817126744E-04
    51 -.42518764601225E-05
    52 0.98887841982684E+00
    53 -.41027058524427E-01
    54 0.19296157067528E-01
    55 0.11704635896760E-02
    56 -.24549951410178E-02
    57 0.67819420121301E-03
    58 0.44494275873682E-02
    59 0.66908077176813E-03
    60 0.29502242538570E-02
    61 -.11992517101910E-03
    62 -.78649157768918E-04
    63 0.19857432878802E-03
    64 0.80374608840326E-03
    65 -.37169376047833E-03
    66 0.50836439027601E-03
    67 0.48578950151321E-02
    68 -.18130317411764E-02
    69 0.25886203261455E-02
    70 -.31754856800359E-02
    71 0.15911371131922E-02
    72 -.84593559575480E-04
    73 -.10020207067911E-03
    74 -.31198614752576E-03
    75 0.16476291259518E-03
    76 0.13933490374414E-03
    77 0.69375761658444E-04
    78 -.63370936914976E-03
    79 -.32161995594275E-03
    80 -.16066289544310E-03
    81 0.19316157400924E-04
    82 0.61514519931515E-05
    83 -.25467609394076E-04
    84 -.17649544229055E-04
    85 0.23144395791342E-04
    86 0.24926613358016E-04
    87 -.14251421605609E-03
    88 0.78108182560397E-03
    89 0.16391903356223E-04
    90 -.87937646092739E-04
    91 -.66316353357752E-04
    92 -.28796771472834E-03
    93 -.47241839781814E-04
    94 -.70451472245835E-03
    95 0.96648938776250E-04
    96 0.67975509210791E-04
    97 0.12432711856743E-03
    98 -.84685862601511E-04
    99 -.10951460684850E-03
   100 -.70484684447701E-03
   101 -.39786005931931E-04
   102 -.17511606014274E-05
   103 0.41537166533359E-04
   104 -.51426036740816E-05
   105 0.19734637774845E-05
   106 0.51599681722383E-05
   107 0.33296525841785E-03
   108 -.45071796075307E-03
   109 -.67075979142333E-04
   110 0.24446101915435E-04
   111 -.15669604034352E-04
   112 -.36620446589928E-03
   113 0.65949756607035E-03
   114 -.91629206742953E-04
   115 0.14094219561538E-04
   116 -.53090557605883E-04
 Sym=     7a   
 Ene= -.16832332861570E+02
 Spin= Alpha
 Occup= 2.000000
     1 0.12046808843026E-03
     2 -.40206093647134E-03
     3 -.25867123683316E-04
     4 0.13652265280557E-02
     5 -.19914454191910E-05
     6 0.60006532266379E+00
     7 0.50091184863088E-01
     8 0.78969776313538E+00
     9 0.12189810612092E-01
    10 0.10888601503211E-02
    11 0.16139500686218E-01
    12 -.37425444334623E-02
    13 0.12118197137411E-02
    14 -.25344903801868E-02
    15 -.13906295185685E-04
    16 0.21578378128174E-05
    17 0.11748457372867E-04
    18 0.24767332530636E-04
    19 -.37248967776193E-04
    20 -.84122673163672E-05
    21 -.35960725714553E-03
    22 0.48889624374802E-03
    23 -.12928898660250E-03
    24 -.42524569046609E-03
    25 0.37295164896043E-04
    26 0.33772127759560E-03
    27 0.21707359753097E-04
    28 0.62913631723531E-05
    29 -.58420396710002E-04
    30 -.34675573978575E-04
    31 -.89067499343777E-05
    32 0.13521490971147E-04
    33 0.55520947665946E-05
    34 0.46600049966554E-06
    35 0.64857696018496E-04
    36 -.19082362340897E-04
    37 0.34953888805204E-04
    38 0.15731479194640E-03
    39 0.45203430194018E-03
    40 -.16691872431937E-03
    41 0.19921743826265E-03
    42 -.19989420328536E-03
    43 0.58408835705045E-03
    44 -.33652195995219E-03
    45 0.65450832537812E-03
    46 0.13326794780982E-04
    47 0.17733952170501E-05
    48 -.15100189998032E-04
    49 0.35456655621325E-04
    50 -.60549141016361E-04
    51 0.64673249833854E-04
    52 -.71676386179223E-04
    53 -.26810768139644E-03
    54 -.62064555740351E-03
    55 -.29057354539665E-03
    56 -.10915668674727E-03
    57 -.20888632188868E-03
    58 0.81105784427538E-03
    59 0.76535104025590E-04
    60 0.66279006556020E-03
    61 -.37130041506668E-05
    62 0.90487127011602E-05
    63 -.53357085504933E-05
    64 0.80830904739700E-04
    65 0.33396994338431E-04
    66 0.55849434331942E-04
    67 0.63846096408857E-03
    68 -.85317996646325E-03
    69 -.23018727614000E-03
    70 -.36480443872921E-03
    71 -.17964414521759E-03
    72 0.55149359090998E-04
    73 0.53561742153449E-03
    74 -.14563022665483E-02
    75 0.19017777615546E-04
    76 -.19004758854637E-03
    77 -.91037420381293E-04
    78 -.34224840435374E-03
    79 0.16499952958398E-02
    80 0.61377117393042E-03
    81 0.40157095487627E-04
    82 -.94590868202493E-04
    83 0.54433772714865E-04
    84 0.59399859347976E-04
    85 0.63233718444668E-04
    86 -.12137394597594E-03
    87 -.11976931200525E-03
    88 -.13381538556587E-02
    89 -.10950958308088E-03
    90 0.16067658601999E-03
    91 -.11954819747106E-03
    92 0.11156976065309E-04
    93 0.52271665450345E-04
    94 0.88780561812453E-04
    95 -.24098221463849E-04
    96 0.54050600928773E-04
    97 -.75924350391018E-04
    98 -.14675410797952E-03
    99 -.27491699978744E-03
   100 0.59825730844394E-03
   101 -.25880291365192E-05
   102 -.91539897591657E-05
   103 0.11742018895685E-04
   104 0.42656035919048E-05
   105 -.31038663949581E-04
   106 -.97342558039704E-05
   107 -.97390034112483E-04
   108 0.67863135163423E-03
   109 -.14015836949882E-03
   110 -.18766033240888E-04
   111 0.22019617254896E-04
   112 0.72938811890217E-04
   113 -.12515621544920E-03
   114 -.17165437238654E-03
   115 0.92736368134246E-04
   116 -.16267774635895E-03
 Sym=     8a   
 Ene= -.16830916674801E+02
 Spin= Alpha
 Occup= 2.000000
     1 0.23119613361154E-03
     2 -.76841025850425E-03
     3 0.10637936049546E-03
     4 0.31432206435811E-02
     5 -.12484125843400E-02
     6 0.27277678846228E+00
     7 0.91716057437062E+00
     8 -.26548052753994E+00
     9 0.55357654721909E-02
    10 0.18990306113885E-01
    11 -.53590193816291E-02
    12 -.58147712353846E-03
    13 -.20249169346538E-02
    14 0.98733763381865E-03
    15 -.18440700777251E-04
    16 0.48715133528130E-04
    17 -.30274432750880E-04
    18 -.19509926913144E-05
    19 -.21889775971191E-04
    20 0.41316371226743E-04
    21 -.10681847817571E-04
    22 0.16285519838431E-03
    23 -.15217335056674E-03
    24 -.74300244916137E-04
    25 -.75515983464416E-03
    26 0.41174325702977E-03
    27 0.57434459722976E-04
    28 -.38685138949024E-05
    29 -.11954137644979E-04
    30 -.12309817267079E-03
    31 -.12036106784360E-04
    32 -.61014327621133E-04
    33 0.46041758955864E-04
    34 0.17226262808903E-04
    35 0.77052486253070E-04