 operating system is UNIX !

 force (c-17-28.gp.local) : TURBOMOLE V7.2 ( 21454 ) 4 Oct 2017 at 12:24:43
 Copyright (C) 2017 TURBOMOLE GmbH, Karlsruhe


    2018-03-04 02:07:54.802 



                             T U R B O M O L E   

                          a o f o r c e - program

                        using direct algorithms for

                       SCF level calculations of
                         * harmonic force constants
                         * hyperpolarizabilities
                         * IR and RAMAN intensities
                         * VCD intensities

                       DFT level calculations of
                         * harmonic force constants
                         * IR intensities
                                                   
       Stephan Boecker, Peter Deglmann, Filipp Furche and Marco Haeser
                          Quantum Chemistry Group
                          Universitaet  Karlsruhe
                                   Germany

 
 
 
 
     References :
 
       RI-J implementation:
         Peter Deglmann, Klaus May, Filipp Furche, Reinhart Ahlrichs
                 Chem. Phys. Lett. 384:103 (2004)
 
       Efficiency, technical details:
         Peter Deglmann, Filipp Furche, Reinhart Ahlrichs
                 Chem. Phys. Lett. 362:511 (2002)
 
       Search of lowest eigenvalues by iterative diagonalization:
         Peter Deglmann, Filipp Furche
                 J. Chem. Phys. 117:9535 (2002)
 
       Vibrational circular dichroism implementation:
        Kevin Reiter, Michael Kuehn, Florian Weigend
                 J. Chem. Phys. 146:054102 (2017)  
 
 


              +--------------------------------------------------+
              | Atomic coordinate, charge and isotop information |
              +--------------------------------------------------+

                    atomic coordinates            atom    charge  isotop
          0.46600932   -0.03106279    4.09380416    cl    17.000     0
          2.89632843    1.46101561   -1.19468446    o      8.000     0
         -0.31885504   -3.10018596   -1.00810358    o      8.000     0
         -2.63869000    1.96336530   -0.64225398    o      8.000     0
          2.35871945   -0.21503150   -1.69855288    h      1.000     0
         -0.98893987    2.40457133   -1.30213933    h      1.000     0
          0.05929424   -2.71272614    0.76057175    h      1.000     0
         -2.19262038    1.51973360    1.09724430    h      1.000     0
         -1.58010600   -1.82106350   -1.36206414    h      1.000     0
          2.59102096    1.37352179    0.62742149    h      1.000     0
 
       center of nuclear mass  :    0.17644148    0.05183338    1.09192471
       center of nuclear charge:    0.16339987    0.05562761    0.95652800

              +--------------------------------------------------+
              |               basis set information              |
              +--------------------------------------------------+

              we will work with the 1s 3p 5d 7f 9g ... basis set
              ...i.e. with spherical basis functions...

   type   atoms  prim   cont   basis
   ---------------------------------------------------------------------------
    cl       1     63     37   def2-TZVP   [5s5p2d1f|14s9p3d1f]
    o        3     46     31   def2-TZVP   [5s3p2d1f|11s6p2d1f]
    h        6      8      6   def2-TZVP   [3s1p|5s1p]
   ---------------------------------------------------------------------------
   total:   10    249    166
   ---------------------------------------------------------------------------

   total number of primitive shells          :   53
   total number of contracted shells         :   70
   total number of cartesian basis functions :  186
   total number of SCF-basis functions       :  166

 
             FOUND RI-J FLAG !
 

 NOTE: THIS IS A PRELIMINARY IMPLEMENTATION. THE RI APPROXIMATION IS
       PRESENTLY USED FOR CPKS CONTRIBUTIONS TO THE HESSIAN ONLY! SEE
       MANUAL FOR FURTHER DETAILS.

  
 AUXILIARY BASIS SET information:

              we will work with the 1s 3p 5d 7f 9g ... basis set
              ...i.e. with spherical basis functions...

   type   atoms  prim   cont   basis
   ---------------------------------------------------------------------------
    cl       1     77     51   def2-TZVP   [8s4p3d1f1g|14s5p5d2f1g]
    o        3     70     49   def2-TZVP   [6s4p3d1f1g|12s5p4d2f1g]
    h        6     16     11   def2-TZVP   [3s1p1d|5s2p1d]
   ---------------------------------------------------------------------------
   total:   10    383    264
   ---------------------------------------------------------------------------

   total number of primitive shells          :   59
   total number of contracted shells         :   92
   total number of cartesian basis functions :  318
   total number of SCF-basis functions       :  264


 symmetry group of the molecule :   c1 

 the group has the following generators :
   c1(z)

    1 symmetry operations found

 there are 1 real representations :   a   

 maximum number of shells which are related by symmetry :  1


 determining totally symmetric integral contributions 
    - equivalent to irreducible tensor elements - 
 which can be formed within each triple of representations :

             representation triple      contributions

              a     a     a               1

    mo occupation :
   irrep   mo's   occupied
    a      166       24
 
 number of basis functions   :                    166
 number of occupied orbitals :                     24
 
  MOs are in ASCII format !


 reading orbital data $scfmo  from file mos
 orbital characterization : scfconv=7
 time elapsed for calculating density matrices :   0.002 sec

 number of non-frozen orbitals          :   166
 number of non-frozen occupied orbitals :    24
 Blocking parameters 
 shells:
    index      start shell   last shell  start bf    last bf    #bf 
       1             1          70             1        186    186
  
           ----------------------
               RI - INFORMATION
           ----------------------

 biggest AO integral is expected to be    10.437462037

 Threshold for integral neglect (rithr2):   0.13E-10
 Threshold for integral neglect (rithr1):   0.13E-10

 Contributions to RI integral batches: 
  neglected integral batches:                   201
  direct contribution:                            0
  memory contribution:                  2284
 Core memory available (ricore):              3000 MiB
 Core memory needed for (P|Q) and Cholesky:      1 MiB
 Core memory used for integrals:                40 MiB
 
 ****************************************
 Memory allocated for RIDFT: 41 MiB
 ****************************************
 
  
           ------------------
           density functional
           ------------------
 PBE0 hybrid functional
 exchange:    3/4 (LDA+PBE) + 1/4 HF
 correlation: LDA (PW) + PBE

 iterations will be done with small grid
  
 spherical integration : Lebedev's spherical grid
 spherical gridsize    :                     3
    i.e. gridpoints    :                   302
 value for diffuse not defined
 radial integration    : Chebyshev 2nd kind (scaling 3)
 radial gridsize       :                     3
 integration cells     :                    10
 partition function    : becke
 partition sharpness   :                     3
  
 
 Derivatives of quadrature weights will be included
 
          Overall gridpoints after grid construction =         47401
 Ordering of quadrature gridpoints disabled.
 
 
 
 
 OCCUPIED-OCCUPIED TENSOR SPACES :

          IRREP   tensor space dimension   number of roots

           a               576                  24
 
 OCCUPIED-VIRTUAL TENSOR SPACES :

          IRREP   tensor space dimension   number of roots

           a              3408                  24
 
 
 
 
 CONSTRUCTING integral bounds

 setting up bound for integral derivative estimation

 increment for numerical differentiation : 0.00050000
 
 machine precision:   2.220446049250313E-016

 integral neglect threshold       :  0.10E-09
 integral storage threshold THIZE :  0.10E-04
 integral storage threshold THIME :         5

 
 
 
 PREPARING NUMERICAL INTEGRATION
 
 Remaining core memory for DFT =                  4976 MB
 
 Memory needed per atom    =                   407 KiB
 
     i. e.                    10 atoms per loop

 Calculating ground state density on molecular grid

 Integral of ground state density: N =   47.99999966780314    


 
 
 CONSTRUCTING first deriv. of <mu|x,y,z|nu> -> Dip. deriv.
  dipole integral derivatives will be neglected if
  expon. factor <0.268817E-11
      ...terminated. cpu:       0.01       wall:       0.01
 
 
 
 
 CONSTRUCTING first deriv. of  <mu|nu>
                               <mu|h|nu>    -> RHS
              second deriv. of <mu|nu>      -> Hessian
                               <mu|h|nu>    -> Hessian
                               nucl. rep.   -> Hessian
     integrals are neglected if expon. factor <  2.688172043010752E-013
  _________________________________
 |                                 |
 |         DFTD3 V3.1 Rev 0        |
 | S.Grimme, University Bonn       |
 |         June 2014               |
 |   see standalone version        |
 |       dftd3 -h for options      |
 |_________________________________|
 
 Please cite DFT-D3 work done with this code as:
 S. Grimme, J. Antony, S. Ehrlich and H. Krieg,
 J. Chem. Phys, 132 (2010), 154104.
 If used with BJ-damping cite also
 S. Grimme, S. Ehrlich and L. Goerigk,
 J. Comput. Chem. 32 (2011), 1456-1465
 For DFT-D2 the reference is
 S. Grimme, J. Comput. Chem., 27 (2006), 1787-1799
 
      ...terminated. cpu:       0.36       wall:       0.39
 
 
 
 
 CONSTRUCTING second deriv. of 2e energy    -> Hessian
   treating Coulomb (and exchange) contribution
     integrals will be neglected if total contribution <  2.688172043010752E-009
      ...terminated. cpu:      23.30       wall:      23.30
   treating exchange-correlation contribution
      ...terminated. cpu:      31.75       wall:      31.78
 
 
 
 
 CONSTRUCTING S(i,j)xi
      ...terminated. cpu:       0.00       wall:       0.02
 
 
 
 
 CONSTRUCTING <i|x,y,z|j>*S(i,j)xi          -> Dip. deriv.
      ...terminated. cpu:       0.01       wall:       0.01
 
 
 
 
 CONSTRUCTING epsilon(i)*S(i,j)xi*S(i,j)chi -> Hessian
      ...terminated. cpu:       0.00       wall:       0.00
 
 
 
 
 CONSTRUCTING G(a,i)[S(k,l)xi]              -> RHS
              G(i,j)[S(k,l)xi]*S(i,j)chi    -> Hessian
 
         Maximum core memory set to                   5000 MB
         This corresponds to                 18459 vectors in CAO basis
      ...terminated. cpu:      32.88       wall:      32.93
 
 
 
 
 CONSTRUCTING G(mu,nu)[D(kap,lam)]xi
 
          Maximum core memory set to                   5000 MB
          Atoms treated simultaneously :                    10
      ...terminated. cpu:      36.30       wall:      36.45
 
 
 
 
 CONSTRUCTING F(a,i)xi                      -> RHS
              F(i,j)xi*S(i,j)chi            -> Hessian
 
        Maximum core memory set to                  5000 MB
        This corresponds to                 31509 vectors in CAO basis
      ...terminated. cpu:       0.04       wall:       0.10
 
 
 
 
 CONSTRUCTING epsilon(i)*S(a,i)xi           -> RHS
      ...terminated. cpu:       0.02       wall:       0.04
 
 
 
 
 SOLVING CPHF equations
 
 Residuum convergence criterium   :  1.000000000000000E-005
 
 Maximum number of Davidson iterations set to                    25
  Switching to small grid
        preparing numerical integration ....
          Overall gridpoints after grid construction =         12561

 Calculating ground state density on molecular grid

 Integral of ground state density: N =   47.99891265293228    




                       Nonorthonormal Krylov Space Iteration


 total number of roots to be determined:  24


 maximum core memory set to  5000 MB,
 corresponding to    18295 vectors in CAO basis


 maximum number of simultaneously treated vectors (including degeneracy):       24


 Iteration IRREP Converged      Max. Euclidean
                 roots          residual norm

    1       a        0        1.066500347039176D-01
 
    2       a        0        1.189698088114264D-02
 
    3       a        0        8.752305424752965D-04
 
    4       a        1        6.394169663009682D-05
 
    5       a       24        8.888670047314681D-06
 

 converged!

  Switching to fine grid
        preparing numerical integration ....
          Overall gridpoints after grid construction =         47401

 Calculating ground state density on molecular grid

 Integral of ground state density: N =   47.99999966780368    



 Iteration IRREP Converged      Max. Euclidean
                 roots          residual norm

    6       a        0        1.512319708788078D-04
 

 NOTE: Residual norms are larger than 1.00D-05 due to mgrid option!

      ...terminated. cpu:     100.65       wall:     103.03
 
 
 
 
 CONSTRUCTING <a|x,y,z|i>*U(a,i)xi          -> Dip. deriv.
      ...terminated. cpu:       0.02       wall:       0.02
 
 
 
 
 CONSTRUCTING RHS(a,i)xi*U(a,i)chi          -> Hessian
      ...terminated. cpu:       0.00       wall:       0.04
 
 
 
 

            -----------------------
            permanent dipole moment
            -----------------------

                                   x                y                z
    electronic part       :   -7.9071589959    -2.6494813309   -46.5835250781
     nuclear   part       :    7.6797939382     2.6144977458    44.9568158145
     total                :   -0.2273650577    -0.0349835851    -1.6267092637

 with reference to the point :   0.0000000        0.0000000        0.0000000
 (given in atomic units)
    | dipole |       :    4.1758524004  debye

   ***  dipole moment & cartesian dipole gradients written onto
        $dipole, $dipgrad,  file=<dipgrad>  ***

             -----------------------------------
             rotational and vibrational analysis
             -----------------------------------


            ==============================================================
            ATOMIC WEIGHTS (average over the natural occurance of isotops)
            ==============================================================
            ('*' denotes special isotop !)
              1     cl               35.45300
              2     o                15.99940
              3     o                15.99940
              4     o                15.99940
              5     h                 1.00797
              6     h                 1.00797
              7     h                 1.00797
              8     h                 1.00797
              9     h                 1.00797
             10     h                 1.00797

          -------------------------------------------------
          CARTESIAN FORCE CONSTANT MATRIX (hartree/bohr**2)
         (translational & rotational space projected out)
          -------------------------------------------------

   ATOM              1 cl                          2 o 
                  dx        dy        dz        dx        dy        dz
   1 cl    dx  0.0076926
           dy -0.0001272 0.0074715
           dz  0.0021378-0.0006198 0.0295189
   2 o     dx  0.0017658-0.0021505 0.0070997 0.0900391
           dy -0.0021623 0.0034432 0.0038656 0.1514951 0.4649959
           dz  0.0107491 0.0062799-0.0131309-0.0455245 0.0883600 0.5224074
   3 o     dx  0.0044546-0.0019922-0.0030507-0.0020194-0.0095746-0.0004307
           dy -0.0011257-0.0005557-0.0085043-0.0082489-0.0067653-0.0002537
           dz -0.0027101-0.0128557-0.0118104 0.0010908 0.0019580 0.0058302
   4 o     dx -0.0011093 0.0037009-0.0079335-0.0131614 0.0032061 0.0004370
           dy  0.0039783 0.0026028 0.0057935 0.0014996 0.0045392-0.0004082
           dz -0.0119464 0.0077818-0.0094440 0.0030062-0.0008471 0.0056678
   5 h     dx -0.0016412-0.0010276-0.0006560-0.0541417-0.1323123-0.0398820
           dy -0.0009576-0.0021347 0.0007774-0.1253110-0.4131199-0.1344374
           dz -0.0007977 0.0008616 0.0015084-0.0227039-0.0865161-0.0779841
   6 h     dx -0.0031143 0.0001571 0.0001377 0.0064231-0.0045263 0.0023261
           dy  0.0002286-0.0006100-0.0012553-0.0047313-0.0036382-0.0009987
           dz  0.0002442-0.0013943 0.0012195 0.0012398-0.0006398-0.0057218
   7 h     dx -0.0050509 0.0012452 0.0008360-0.0008582 0.0011466-0.0013011
           dy  0.0002515-0.0000931 0.0041807 0.0010869 0.0002291-0.0022039
           dz  0.0004505 0.0078325 0.0006557-0.0012736-0.0030762-0.0029922
   8 h     dx -0.0002689-0.0025483 0.0033486 0.0005208 0.0003481-0.0025108
           dy -0.0029302-0.0035192-0.0020912 0.0006352-0.0015468 0.0009412
           dz  0.0068974-0.0036802-0.0007109-0.0035210 0.0011419-0.0026327
   9 h     dx -0.0007114 0.0007515 0.0014078 0.0017919 0.0020574 0.0009255
           dy  0.0009180-0.0028983 0.0000793 0.0024176-0.0021382 0.0003688
           dz  0.0015015 0.0002196 0.0010461 0.0002024 0.0003461-0.0014101
  10 h     dx -0.0020171 0.0019910-0.0033274-0.0303600-0.0096778 0.0752114
           dy  0.0019264-0.0037065-0.0022259-0.0166927-0.0459990 0.0423520
           dz -0.0065262-0.0044251 0.0011476 0.0603842-0.0045925-0.4300336

   ATOM              3 o                           4 o 
                  dx        dy        dz        dx        dy        dz
   3 o     dx  0.2846184
           dy -0.2295778 0.3139616
           dz  0.1499735 0.0434993 0.4779414
   4 o     dx  0.0022999 0.0055411 0.0003260 0.4911962
           dy  0.0072986-0.0109476-0.0000224 0.0773839 0.0812247
           dz  0.0014109-0.0021612 0.0056784-0.0416321-0.1497225 0.5047927
   5 h     dx  0.0019051 0.0064475-0.0036544 0.0004999-0.0028117-0.0013826
           dy  0.0060477-0.0002328-0.0027488-0.0023402-0.0010900 0.0009332
           dz -0.0028117-0.0020559-0.0047033-0.0008963 0.0004168-0.0010761
   6 h     dx -0.0029882 0.0002808 0.0001149-0.4043742-0.1083985 0.1643857
           dy  0.0007143 0.0026165-0.0012729-0.0944360-0.0410165 0.0501462
           dz  0.0004207-0.0005658-0.0014040 0.1157092 0.0423192-0.0998978
   7 h     dx -0.0477734 0.0055273-0.0654851-0.0004931-0.0016759-0.0000438
           dy -0.0087506-0.0521603-0.1028193-0.0014795 0.0001871-0.0022215
           dz -0.0983243-0.0684791-0.4059652 0.0003213-0.0030624-0.0034662
   8 h     dx -0.0017063-0.0005436-0.0014640-0.0710773 0.0246491-0.1153937
           dy -0.0006842 0.0005108 0.0022899 0.0106163-0.0411028 0.0913697
           dz -0.0022054 0.0025815-0.0026253-0.0687499 0.1007819-0.3938548
   9 h     dx -0.2380610 0.2206822-0.0798608-0.0053110-0.0016079-0.0004281
           dy  0.2353469-0.2470572 0.0705878-0.0016386 0.0072739 0.0045000
           dz -0.0473003 0.0337492-0.0594014-0.0002687 0.0032508-0.0048541
  10 h     dx -0.0007298 0.0010170 0.0016692 0.0015303-0.0003156 0.0020240
           dy  0.0011718 0.0006301 0.0013842-0.0005541-0.0016708 0.0002214
           dz  0.0023180 0.0021899-0.0035403 0.0026869 0.0006532-0.0035459

   ATOM              5 h                           6 h 
                  dx        dy        dz        dx        dy        dz
   5 h     dx  0.0534412
           dy  0.1230681 0.4189365
           dz  0.0360804 0.1330183 0.1005769
   6 h     dx -0.0000863 0.0039031 0.0005010 0.3980615
           dy  0.0046258-0.0022340 0.0000175 0.1085934 0.0489917
           dz  0.0011067-0.0009659 0.0013644-0.1576954-0.0563081 0.1252050
   7 h     dx  0.0004076-0.0012258 0.0035782 0.0007334 0.0000736 0.0000208
           dy -0.0009421 0.0004921 0.0029401 0.0003488-0.0005192 0.0007891
           dz  0.0036659 0.0042547-0.0015508-0.0001337 0.0012735 0.0004682
   8 h     dx -0.0000605 0.0002037 0.0007928 0.0045899-0.0127744 0.0440278
           dy  0.0005677 0.0005859-0.0005420 0.0007578-0.0004110 0.0151089
           dz  0.0012409-0.0005562 0.0001768-0.0043376 0.0061475-0.0228401
   9 h     dx -0.0051290-0.0011361-0.0002266 0.0020123-0.0032444-0.0007221
           dy -0.0016343 0.0029435-0.0002060-0.0027346-0.0042416 0.0000446
           dz  0.0010106-0.0003910 0.0015294-0.0000650 0.0010663 0.0016522
  10 h     dx  0.0048050-0.0022520-0.0135161-0.0012572 0.0009505-0.0043517
           dy  0.0040189-0.0041467-0.0479343 0.0016183 0.0010624 0.0016121
           dz  0.0024705 0.0001157-0.0198417-0.0052336 0.0011841-0.0000457

   ATOM              7 h                           8 h 
                  dx        dy        dz        dx        dy        dz
   7 h     dx  0.0617667
           dy -0.0029036 0.0505171
           dz  0.0982785 0.0645769 0.4190868
   8 h     dx  0.0005805 0.0019251 0.0013747 0.0686047
           dy  0.0016988-0.0021221-0.0003047-0.0106210 0.0469277
           dz  0.0011111 0.0007454 0.0040589 0.0681634-0.1008998 0.4159103
   9 h     dx -0.0092140 0.0122979-0.0034349 0.0018652-0.0001484 0.0012268
           dy -0.0019315 0.0053553-0.0030746-0.0006827-0.0006364-0.0052461
           dz -0.0368503 0.0330932-0.0146722 0.0003510-0.0046430-0.0015487
  10 h     dx -0.0000985-0.0018345-0.0009244-0.0030481 0.0001080 0.0001743
           dy -0.0019548-0.0018858 0.0000595 0.0000440 0.0013140-0.0010159
           dz -0.0001443 0.0009193 0.0043770 0.0013101-0.0012290 0.0040665

   ATOM              9 h                          10 h 
                  dx        dy        dz        dx        dy        dz
   9 h     dx  0.2529608
           dy -0.2292773 0.2410048
           dz  0.0821310-0.0663631 0.0771241
  10 h     dx -0.0002037-0.0007837-0.0007122 0.0313791
           dy -0.0003750 0.0003942-0.0003281 0.0107970 0.0540081
           dz -0.0010185-0.0006907 0.0005347-0.0562471 0.0058750 0.4468814
 

   *** projected hessian written onto $hessian (projected), file=<hessian> ***

 dipole moment in principle axis system (a.u.) :
    -0.0859766564    -0.0639605556    -1.6393958677
 norm :   1.64289432075275     

 rotational constants b for rotations around axis of inertia
 and optical intensities for (1 <-- 0) transition

   b   :     0.0739046333     0.0738708706     0.1113891748   (cm**(-1))
   b   :        2215.6052        2214.5930        3339.3635     (MHz)
  int. :     0.0073919854     0.0040909527     2.6876188110     (a.u.)

   x   :     0.9756818475    -0.1974276504     0.0952221364
   y   :     0.2008224206     0.9792444680    -0.0273975776
   z   :    -0.0878367109     0.0458540590     0.9950789504

   ***  normal modes written onto $vibrational normal modes, file=<vib_normal_modes>  ***

 keyword $vibrational reduced masses missing in file <control>


   ***  vibrational spectroscopic data written onto$vibrational spectrum   
        file=<vibspectrum>  ***

          ---------------------------------------------------
          NORMAL MODES and VIBRATIONAL FREQUENCIES (cm**(-1))
          ---------------------------------------------------

 imaginary wave numbers indicate a negative curvature of the energy surface.
 zero frequency modes have no physical meaning except being generators of
 translations and rotations. each vibrational normal mode - given in terms of
 cartesian displacement vectors of all atoms - has been normalized to unity.
 to obtain mass-weigthed normal coordinates in a.u. divide the tabulated
 modes by sqrt(reduced mass * 1822.88853).
 band intensities or cross sections refer to independent non-degenerate normal
 modes, that is, the intensities of degenerate modes have yet to be added.
 dDIP/dQ is the normal mode derivative of the dipole moment.


       mode               1        2        3        4        5        6

     frequency           0.00     0.00     0.00     0.00     0.00     0.00

     symmetry                                                             

        IR                -        -        -        -        -        - 
|dDIP/dQ|   (a.u.)     0.0000   0.0000   0.0000   0.0000   0.0000   0.0000
intensity (km/mol)       0.00     0.00     0.00     0.00     0.00     0.00
intensity (  %   )       0.00     0.00     0.00     0.00     0.00     0.00
 
       RAMAN              -        -        -        -        -        - 
 
  1   cl          x   0.07321 -0.13587  0.39108 -0.21036  0.04628  0.17976
                  y   0.01426  0.07123 -0.23493 -0.48992  0.00464  0.07534
                  z   0.07468  0.07609  0.10624 -0.10699 -0.07387 -0.26436
  2   o           x  -0.26152 -0.04318  0.13368 -0.11822  0.21760 -0.15060
                  y   0.24189 -0.37001 -0.25176 -0.07410  0.01047 -0.09252
                  z  -0.01492 -0.00581 -0.01679  0.05267  0.00650 -0.46354
  3   o           x  -0.18719 -0.42519 -0.01971 -0.18526 -0.13046 -0.15450
                  y   0.19047 -0.09155 -0.13839 -0.04450  0.24765 -0.07580
                  z   0.00874  0.21852  0.11136 -0.37880 -0.19287 -0.12202
  4   o           x  -0.23568  0.00243  0.18429 -0.11853  0.24963 -0.11382
                  y   0.14488  0.11972 -0.05968 -0.04282  0.41047 -0.05676
                  z   0.33218  0.00585  0.31560  0.02109 -0.03627 -0.12754
  5   h           x  -0.26820 -0.18709  0.04363 -0.13516  0.09599 -0.18835
                  y   0.25291 -0.34744 -0.22564 -0.02360  0.06937 -0.10586
                  z  -0.04446  0.07265 -0.00759 -0.09723 -0.05968 -0.37889
  6   h           x  -0.28098  0.03542  0.16136 -0.10343  0.29035 -0.15416
                  y   0.19196 -0.04844 -0.11031 -0.00999  0.30906 -0.08235
                  z   0.25039 -0.02412  0.22444  0.08081 -0.00227 -0.24551
  7   h           x  -0.08754 -0.38172  0.09832 -0.20353 -0.12051 -0.04096
                  y   0.13085 -0.04403 -0.17568 -0.20041  0.15536 -0.02377
                  z   0.00049  0.19882  0.09429 -0.34074 -0.17478 -0.15769
  8   h           x  -0.12623 -0.02410  0.27065 -0.14817  0.19686 -0.00500
                  y   0.08728  0.16023 -0.09903 -0.19721  0.31408 -0.00585
                  z   0.28942  0.02298  0.28342 -0.01069 -0.04732 -0.14246
  9   h           x  -0.22595 -0.31992  0.00556 -0.16241 -0.02953 -0.17255
                  y   0.18596 -0.00147 -0.08820  0.00348  0.35606 -0.08212
                  z   0.13054  0.16896  0.20268 -0.28685 -0.16073 -0.08058
 10   h           x  -0.15211 -0.03928  0.23774 -0.14393  0.19093 -0.03531
                  y   0.17084 -0.26268 -0.26513 -0.22489 -0.03190 -0.03652
                  z   0.00000  0.00000  0.00000  0.04112  0.00000 -0.44153

reduced mass(g/mol)     7.169    7.866   12.323   14.468    7.195    9.567


       mode               7        8        9       10       11       12

     frequency         104.58   107.80   140.28   173.80   174.82   218.78

     symmetry            a        a        a        a        a        a   

        IR               YES      YES      YES      YES      YES      YES
|dDIP/dQ|   (a.u.)     0.0007   0.0007   0.0009   0.0032   0.0032   0.0036
intensity (km/mol)       0.94     0.94     1.52    18.49    18.57    22.62
intensity (  %   )       0.11     0.11     0.18     2.15     2.16     2.63
 
       RAMAN             YES      YES      YES      YES      YES      YES
 
  1   cl          x   0.05752  0.15916  0.01024 -0.06373 -0.11517  0.02662
                  y   0.15655 -0.05635 -0.01190 -0.11701  0.06466 -0.00616
                  z   0.01341 -0.00766  0.27610  0.00442  0.00263  0.26101
  2   o           x   0.21018 -0.23622 -0.31438  0.22774 -0.10335  0.21738
                  y   0.01109  0.26835 -0.12029  0.24095  0.17853  0.10736
                  z   0.21789  0.27383 -0.20106 -0.23376 -0.14168 -0.18227
  3   o           x  -0.30813 -0.24226  0.04979 -0.18318 -0.04515 -0.04900
                  y   0.06285 -0.18810  0.30601  0.15796 -0.29660 -0.25414
                  z  -0.31672  0.10367 -0.17774  0.27599 -0.10285 -0.17263
  4   o           x  -0.02315  0.14439  0.24022  0.07498  0.34896 -0.21906
                  y  -0.40305  0.03695 -0.15935 -0.19385 -0.00466  0.15776
                  z   0.06900 -0.36154 -0.19897 -0.05077  0.24244 -0.14279
  5   h           x   0.17659  0.09511 -0.35788  0.12387  0.04549  0.24747
                  y   0.08204  0.21057 -0.16298  0.24211  0.15409  0.12522
                  z   0.03930  0.13795 -0.05310 -0.13696 -0.20375 -0.24646
  6   h           x  -0.09749  0.27816  0.31310 -0.00711  0.31708 -0.26388
                  y  -0.09664 -0.09977 -0.21229 -0.01397  0.02515  0.19220
                  z   0.09562 -0.14832 -0.08319 -0.12132  0.18513 -0.20954
  7   h           x  -0.16849 -0.18696 -0.00500 -0.09459  0.04862 -0.03799
                  y  -0.19864 -0.08705  0.02804  0.21943 -0.37501 -0.16288
                  z  -0.30964  0.06750 -0.10981  0.24914 -0.11773 -0.19874
  8   h           x   0.04512 -0.11652  0.06779  0.16681  0.41670 -0.15489
                  y  -0.29818  0.09034  0.01073 -0.11033 -0.07464  0.10293
                  z   0.09005 -0.29730 -0.11521 -0.04549  0.21827 -0.17720
  9   h           x  -0.11659 -0.08646  0.06544 -0.13263  0.08211 -0.06636
                  y   0.32675 -0.07034  0.38183  0.20865 -0.13763 -0.30412
                  z  -0.10799 -0.01861 -0.01978  0.26712 -0.00668 -0.24930
 10   h           x   0.05999 -0.27839 -0.05676  0.28759 -0.04120  0.14391
                  y  -0.09768  0.07804 -0.04522  0.31466  0.08204  0.08908
                  z   0.19467  0.27491 -0.15914 -0.23257 -0.13466 -0.19947

reduced mass(g/mol)     8.849    8.896    9.701    6.793    6.763    7.609


       mode              13       14       15       16       17       18

     frequency         411.14   428.73   469.84   486.12   495.91   704.36

     symmetry            a        a        a        a        a        a   

        IR               YES      YES      YES      YES      YES      YES
|dDIP/dQ|   (a.u.)     0.0027   0.0023   0.0065   0.0062   0.0062   0.0021
intensity (km/mol)      12.77     9.35    75.59    68.70    68.31     7.60
intensity (  %   )       1.48     1.09     8.79     7.99     7.94     0.88
 
       RAMAN             YES      YES      YES      YES      YES      YES
 
  1   cl          x  -0.00324  0.00291  0.00072 -0.00362  0.00227 -0.00026
                  y  -0.00356 -0.00395 -0.00072 -0.00203 -0.00332 -0.00005
                  z  -0.00157 -0.00035 -0.00672  0.00014  0.00081 -0.00421
  2   o           x  -0.00065 -0.00667  0.00848  0.00230 -0.02279 -0.00401
                  y  -0.00298 -0.00953  0.00038  0.00946 -0.00449  0.01999
                  z   0.01191  0.00830 -0.02654 -0.00144 -0.01659  0.00580
  3   o           x  -0.00421  0.00153 -0.00792 -0.00166 -0.00577  0.02006
                  y   0.00091 -0.00597 -0.01435  0.01989 -0.00252 -0.00476
                  z  -0.00053 -0.01593 -0.01468 -0.01925  0.01799  0.00365
  4   o           x  -0.01712  0.00036 -0.01066 -0.00681 -0.01293 -0.01356
                  y   0.00640 -0.00333  0.01307  0.01412  0.00253 -0.01378
                  z  -0.01611  0.01109 -0.01356  0.02082  0.01499  0.00608
  5   h           x   0.01225 -0.22504 -0.08200  0.41558  0.57555 -0.21187
                  y   0.05766 -0.08282 -0.12038 -0.13712 -0.21710  0.11914
                  z  -0.19007  0.45657  0.43957  0.05459  0.07538 -0.11701
  6   h           x  -0.13845 -0.22838  0.17863  0.07468 -0.07005 -0.01044
                  y   0.18995  0.14231 -0.14236 -0.69614  0.09129 -0.23646
                  z  -0.18611 -0.43642  0.33098 -0.26594 -0.06445 -0.14580
  7   h           x   0.35264 -0.08511  0.03847  0.10917 -0.26508 -0.44669
                  y  -0.47568 -0.04239 -0.33529 -0.01495 -0.04060 -0.21478
                  z   0.00982  0.01249  0.03904 -0.03607  0.07864  0.14913
  8   h           x   0.18677  0.48511 -0.40732  0.02675  0.08655  0.04494
                  y   0.12664  0.04891  0.01630  0.27996 -0.07819  0.48668
                  z  -0.02902 -0.08581  0.08022  0.07533 -0.02738  0.11814
  9   h           x   0.16357 -0.06365  0.16021 -0.21950  0.46558  0.17603
                  y   0.33181 -0.07227  0.22010 -0.13963  0.37546  0.10737
                  z   0.53580 -0.02205  0.19281  0.18879 -0.30995 -0.16432
 10   h           x  -0.11393  0.09069  0.24701 -0.18152 -0.21390  0.41772
                  y  -0.17385  0.44406  0.40148  0.08935  0.05703 -0.28303
                  z  -0.01014  0.03251  0.02333 -0.02389 -0.04092  0.06150

reduced mass(g/mol)     1.020    1.018    1.035    1.032    1.032    1.028


       mode              19       20       21       22       23       24

     frequency         758.02   760.25   877.87  1695.23  1696.01  1721.58

     symmetry            a        a        a        a        a        a   

        IR               YES      YES      YES      YES      YES      YES
|dDIP/dQ|   (a.u.)     0.0129   0.0129   0.0016   0.0089   0.0089   0.0103
intensity (km/mol)     294.70   293.77     4.79   140.60   141.33   188.59
intensity (  %   )      34.25    34.15     0.56    16.34    16.43    21.92
 
       RAMAN             YES      YES      YES      YES      YES      YES
 
  1   cl          x   0.00019  0.00680  0.00025 -0.00053  0.00109 -0.00017
                  y   0.00676 -0.00014 -0.00010 -0.00108 -0.00055  0.00006
                  z   0.00018 -0.00066  0.00347  0.00001 -0.00012 -0.00176
  2   o           x  -0.01712  0.04317  0.03100 -0.00877 -0.01524 -0.01688
                  y   0.01251 -0.00321 -0.00423 -0.02477 -0.03467 -0.03017
                  z   0.00212 -0.00455  0.00734  0.01595  0.02620  0.02332
  3   o           x   0.01125  0.02832 -0.01762 -0.00833  0.02166 -0.01362
                  y   0.02583  0.02463 -0.02474  0.01683 -0.03401  0.03027
                  z   0.00008 -0.00103  0.01141  0.01551 -0.02972  0.02430
  4   o           x  -0.01460  0.01074 -0.01084 -0.04941  0.00353  0.03650
                  y   0.04436 -0.00050  0.02781 -0.00242  0.00199 -0.00218
                  z   0.00185 -0.00069  0.01224 -0.02567  0.00040  0.01845
  5   h           x   0.10674 -0.21385 -0.47124  0.06572  0.08785  0.09594
                  y  -0.01568  0.09438  0.18695  0.07678  0.11503  0.10099
                  z  -0.03424 -0.07216 -0.09883 -0.30049 -0.43645 -0.38022
  6   h           x   0.03828  0.02992  0.05464  0.23951 -0.01898 -0.17765
                  y  -0.24400  0.01945 -0.48179 -0.09187  0.01166  0.07792
                  z  -0.07028  0.06440 -0.17006  0.50150 -0.03774 -0.34787
  7   h           x  -0.19972 -0.47289  0.19820  0.14888 -0.38982  0.23936
                  y  -0.31514 -0.40588  0.17047 -0.19122  0.37164 -0.33568
                  z   0.11166  0.19223 -0.07195 -0.00284  0.02655  0.00551
  8   h           x   0.15745 -0.09022  0.03455  0.56275 -0.04559 -0.40024
                  y  -0.71739 -0.02820 -0.25192  0.15047 -0.04647 -0.04121
                  z  -0.22482  0.01500 -0.06529 -0.07779 -0.00084  0.07523
  9   h           x  -0.11872 -0.14460  0.36720 -0.00688  0.02353 -0.02356
                  y  -0.07970 -0.14285  0.30421 -0.07711  0.17239 -0.14872
                  z   0.09838  0.02621 -0.18062 -0.22530  0.47855 -0.37044
 10   h           x   0.33435 -0.65248 -0.23247  0.06411  0.14672  0.17692
                  y  -0.17841  0.13588  0.09390  0.33524  0.45344  0.37756
                  z   0.04879 -0.10295 -0.02722  0.01266  0.02345  0.03113

reduced mass(g/mol)     1.061    1.061    1.055    1.078    1.078    1.085


       mode              25       26       27       28       29       30

     frequency        3535.41  3536.91  3581.65  3722.57  3750.16  3752.54

     symmetry            a        a        a        a        a        a   

        IR               YES      YES      YES      YES      YES      YES
|dDIP/dQ|   (a.u.)     0.0079   0.0079   0.0220   0.0084   0.0105   0.0105
intensity (km/mol)     110.80   110.16   860.33   125.68   195.71   196.07
intensity (  %   )      12.88    12.80   100.00    14.61    22.75    22.79
 
       RAMAN             YES      YES      YES      YES      YES      YES
 
  1   cl          x   0.00030 -0.00054 -0.00001 -0.00002 -0.00008  0.00017
                  y  -0.00055 -0.00031  0.00001 -0.00001  0.00018  0.00007
                  z  -0.00004  0.00004 -0.00017 -0.00013  0.00001 -0.00002
  2   o           x  -0.00051  0.00776 -0.00687  0.00849  0.00380  0.01332
                  y  -0.00296  0.00047 -0.00620  0.02858  0.01300  0.04462
                  z  -0.00566 -0.04817  0.03264  0.01728  0.00845  0.01607
  3   o           x   0.01160  0.00294  0.00300  0.02721 -0.03253 -0.00751
                  y   0.00728  0.00629  0.01027 -0.02456  0.03088  0.00796
                  z   0.04376  0.01952  0.03049  0.01597 -0.01238  0.00045
  4   o           x  -0.00995  0.00361  0.01255 -0.02862 -0.03254  0.02908
                  y   0.00991 -0.00794 -0.00643 -0.00983 -0.00947  0.00919
                  z  -0.03734  0.02911  0.02931  0.02102  0.01345 -0.01624
  5   h           x   0.01277 -0.00451  0.02443 -0.14347 -0.06729 -0.22198
                  y   0.04808 -0.01379  0.10257 -0.47294 -0.21533 -0.73206
                  z   0.01748 -0.03560  0.05948 -0.16734 -0.07341 -0.25662
  6   h           x   0.03317  0.03157 -0.09555  0.48972  0.53002 -0.48651
                  y   0.01482  0.00818 -0.03860  0.14441  0.15682 -0.14069
                  z  -0.04330  0.00180  0.06739 -0.22396 -0.24193  0.21878
  7   h           x  -0.17652 -0.08676 -0.13271 -0.00905 -0.01188 -0.01655
                  y  -0.11336 -0.05227 -0.08366 -0.03429  0.02128 -0.00423
                  z  -0.71081 -0.33458 -0.53026 -0.10693  0.01871 -0.05199
  8   h           x   0.11439 -0.08646 -0.09713 -0.04237 -0.01355  0.02503
                  y  -0.16098  0.11474  0.13442  0.02213 -0.01118 -0.00645
                  z   0.62927 -0.45970 -0.53145 -0.10724  0.02863  0.03727
  9   h           x  -0.00346  0.04367  0.08718 -0.42694  0.52653  0.13209
                  y   0.00726 -0.03675 -0.07078  0.41329 -0.51172 -0.12481
                  z   0.02392  0.02953  0.04826 -0.14491  0.17610  0.04552
 10   h           x  -0.00909 -0.10551  0.07615  0.02059  0.01127  0.00809
                  y  -0.00242  0.00944 -0.00679  0.02006  0.00772  0.02528
                  z   0.07291  0.79007 -0.57482 -0.10663 -0.05964  0.00319

reduced mass(g/mol)     1.064    1.064    1.057    1.070    1.064    1.064
 

         **************************************************************
         *                                                            *
         *  zero point VIBRATIONAL energy  :      0.0758729  Hartree  *
         *    SCF-energy                   :   -689.3405839           *
         *    SCF + E(vib0)                :   -689.2647110           *
         *                                                            *
         **************************************************************




 time elapsed for vibrational analysis     0.03 sec


    ------------------------------------------------------------------------
         total  cpu-time :  3 minutes and 50 seconds
         total wall-time :  3 minutes and 53 seconds
    ------------------------------------------------------------------------

   ****  force : all done  ****


    2018-03-04 02:11:47.884 

