[Molden Format]
[Title]
                                                                                
[Atoms] AU
 cl    1   17 0.46600931613585E+00 -.31062789463600E-01 0.40938041629740E+01
 o     2    8 0.28963284325850E+01 0.14610156130736E+01 -.11946844562118E+01
 o     3    8 -.31885504271172E+00 -.31001859616864E+01 -.10081035764719E+01
 o     4    8 -.26386899953056E+01 0.19633652963838E+01 -.64225398477424E+00
 h     5    1 0.23587194535647E+01 -.21503149528424E+00 -.16985528849710E+01
 h     6    1 -.98893986730656E+00 0.24045713253750E+01 -.13021393305316E+01
 h     7    1 0.59294239998240E-01 -.27127261416278E+01 0.76057174934173E+00
 h     8    1 -.21926203751349E+01 0.15197335966244E+01 0.10972443020081E+01
 h     9    1 -.15801060006290E+01 -.18210634952388E+01 -.13620641418108E+01
 h    10    1 0.25910209568527E+01 0.13735217946759E+01 0.62742148952709E+00
[GTO]
    1 0
 s    7 1.00
 0.69507990945000E+05 0.51457389646325E-03
 0.10426156880000E+05 0.39781344806745E-02
 0.23732334061000E+04 0.20456178670619E-01
 0.67156420071000E+03 0.80148102887582E-01
 0.21841999790000E+03 0.23454770317658E+00
 0.77572249714000E+02 0.44543368582255E+00
 0.28888815277000E+02 0.35466842499038E+00
 s    3 1.00
 0.12710527185000E+03 0.11293688054705E+00
 0.39339582961000E+02 0.48373514210060E+00
 0.76740679989000E+01 -.12292297389810E+01
 s    2 1.00
 0.38745627630000E+01 0.67296821635762E+00
 0.18385832573000E+01 0.34956051409054E+00
 s    1 1.00
 0.50229057542000E+00 0.10000000000000E+01
 s    1 1.00
 0.17962723420000E+00 0.10000000000000E+01
 p    5 1.00
 0.66650423284000E+03 0.33502508198275E-02
 0.15764241690000E+03 0.26763970407523E-01
 0.50262520978000E+02 0.12362682360800E+00
 0.18536078105000E+02 0.35845787918981E+00
 0.72940532777000E+01 0.61677296353714E+00
 p    1 1.00
 0.29433248995000E+01 0.10000000000000E+01
 p    1 1.00
 0.10404970818000E+01 0.10000000000000E+01
 p    1 1.00
 0.38456415080000E+00 0.10000000000000E+01
 p    1 1.00
 0.13069642732000E+00 0.10000000000000E+01
 d    2 1.00
 0.46100000000000E+01 0.18265835045336E+00
 0.10110000000000E+01 0.91329175226681E+00
 d    1 1.00
 0.33900000000000E+00 0.10000000000000E+01
 f    1 1.00
 0.70600000000000E+00 0.10000000000000E+01
 
    2 0
 s    6 1.00
 0.27032382631000E+05 0.57227335211155E-03
 0.40523871392000E+04 0.44353233492995E-02
 0.92232722710000E+03 0.23020107706038E-01
 0.26124070989000E+03 0.92822490667928E-01
 0.85354641351000E+02 0.29378500009671E+00
 0.31035035245000E+02 0.67401604501641E+00
 s    2 1.00
 0.12260860728000E+02 0.63839937025506E+00
 0.49987076005000E+01 0.39534587125718E+00
 s    1 1.00
 0.11703108158000E+01 0.10000000000000E+01
 s    1 1.00
 0.46474740994000E+00 0.10000000000000E+01
 s    1 1.00
 0.18504536357000E+00 0.10000000000000E+01
 p    4 1.00
 0.63274954801000E+02 0.12018332222616E-01
 0.14627049379000E+02 0.83005421790056E-01
 0.44501223456000E+01 0.31991743925964E+00
 0.15275799647000E+01 0.70715542916104E+00
 p    1 1.00
 0.52935117943000E+00 0.10000000000000E+01
 p    1 1.00
 0.17478421270000E+00 0.10000000000000E+01
 d    1 1.00
 0.23140000000000E+01 0.10000000000000E+01
 d    1 1.00
 0.64500000000000E+00 0.10000000000000E+01
 f    1 1.00
 0.14280000000000E+01 0.10000000000000E+01
 
    3 0
 s    6 1.00
 0.27032382631000E+05 0.57227335211155E-03
 0.40523871392000E+04 0.44353233492995E-02
 0.92232722710000E+03 0.23020107706038E-01
 0.26124070989000E+03 0.92822490667928E-01
 0.85354641351000E+02 0.29378500009671E+00
 0.31035035245000E+02 0.67401604501641E+00
 s    2 1.00
 0.12260860728000E+02 0.63839937025506E+00
 0.49987076005000E+01 0.39534587125718E+00
 s    1 1.00
 0.11703108158000E+01 0.10000000000000E+01
 s    1 1.00
 0.46474740994000E+00 0.10000000000000E+01
 s    1 1.00
 0.18504536357000E+00 0.10000000000000E+01
 p    4 1.00
 0.63274954801000E+02 0.12018332222616E-01
 0.14627049379000E+02 0.83005421790056E-01
 0.44501223456000E+01 0.31991743925964E+00
 0.15275799647000E+01 0.70715542916104E+00
 p    1 1.00
 0.52935117943000E+00 0.10000000000000E+01
 p    1 1.00
 0.17478421270000E+00 0.10000000000000E+01
 d    1 1.00
 0.23140000000000E+01 0.10000000000000E+01
 d    1 1.00
 0.64500000000000E+00 0.10000000000000E+01
 f    1 1.00
 0.14280000000000E+01 0.10000000000000E+01
 
    4 0
 s    6 1.00
 0.27032382631000E+05 0.57227335211155E-03
 0.40523871392000E+04 0.44353233492995E-02
 0.92232722710000E+03 0.23020107706038E-01
 0.26124070989000E+03 0.92822490667928E-01
 0.85354641351000E+02 0.29378500009671E+00
 0.31035035245000E+02 0.67401604501641E+00
 s    2 1.00
 0.12260860728000E+02 0.63839937025506E+00
 0.49987076005000E+01 0.39534587125718E+00
 s    1 1.00
 0.11703108158000E+01 0.10000000000000E+01
 s    1 1.00
 0.46474740994000E+00 0.10000000000000E+01
 s    1 1.00
 0.18504536357000E+00 0.10000000000000E+01
 p    4 1.00
 0.63274954801000E+02 0.12018332222616E-01
 0.14627049379000E+02 0.83005421790056E-01
 0.44501223456000E+01 0.31991743925964E+00
 0.15275799647000E+01 0.70715542916104E+00
 p    1 1.00
 0.52935117943000E+00 0.10000000000000E+01
 p    1 1.00
 0.17478421270000E+00 0.10000000000000E+01
 d    1 1.00
 0.23140000000000E+01 0.10000000000000E+01
 d    1 1.00
 0.64500000000000E+00 0.10000000000000E+01
 f    1 1.00
 0.14280000000000E+01 0.10000000000000E+01
 
    5 0
 s    3 1.00
 0.34061341000000E+02 0.25439307208879E-01
 0.51235746000000E+01 0.19008594890375E+00
 0.11646626000000E+01 0.85244113011042E+00
 s    1 1.00
 0.32723041000000E+00 0.10000000000000E+01
 s    1 1.00
 0.10307241000000E+00 0.10000000000000E+01
 p    1 1.00
 0.80000000000000E+00 0.10000000000000E+01
 
    6 0
 s    3 1.00
 0.34061341000000E+02 0.25439307208879E-01
 0.51235746000000E+01 0.19008594890375E+00
 0.11646626000000E+01 0.85244113011042E+00
 s    1 1.00
 0.32723041000000E+00 0.10000000000000E+01
 s    1 1.00
 0.10307241000000E+00 0.10000000000000E+01
 p    1 1.00
 0.80000000000000E+00 0.10000000000000E+01
 
    7 0
 s    3 1.00
 0.34061341000000E+02 0.25439307208879E-01
 0.51235746000000E+01 0.19008594890375E+00
 0.11646626000000E+01 0.85244113011042E+00
 s    1 1.00
 0.32723041000000E+00 0.10000000000000E+01
 s    1 1.00
 0.10307241000000E+00 0.10000000000000E+01
 p    1 1.00
 0.80000000000000E+00 0.10000000000000E+01
 
    8 0
 s    3 1.00
 0.34061341000000E+02 0.25439307208879E-01
 0.51235746000000E+01 0.19008594890375E+00
 0.11646626000000E+01 0.85244113011042E+00
 s    1 1.00
 0.32723041000000E+00 0.10000000000000E+01
 s    1 1.00
 0.10307241000000E+00 0.10000000000000E+01
 p    1 1.00
 0.80000000000000E+00 0.10000000000000E+01
 
    9 0
 s    3 1.00
 0.34061341000000E+02 0.25439307208879E-01
 0.51235746000000E+01 0.19008594890375E+00
 0.11646626000000E+01 0.85244113011042E+00
 s    1 1.00
 0.32723041000000E+00 0.10000000000000E+01
 s    1 1.00
 0.10307241000000E+00 0.10000000000000E+01
 p    1 1.00
 0.80000000000000E+00 0.10000000000000E+01
 
   10 0
 s    3 1.00
 0.34061341000000E+02 0.25439307208879E-01
 0.51235746000000E+01 0.19008594890375E+00
 0.11646626000000E+01 0.85244113011042E+00
 s    1 1.00
 0.32723041000000E+00 0.10000000000000E+01
 s    1 1.00
 0.10307241000000E+00 0.10000000000000E+01
 p    1 1.00
 0.80000000000000E+00 0.10000000000000E+01
 
[MO]
 Sym=     1a   
 Ene= -.10144035059157E+03
 Spin= Alpha
 Occup= 2.000000
     1 0.10001911161047E+01
     2 -.32181823215519E-01
     3 -.10225071960579E-01
     4 0.34474064443652E-02
     5 -.20648865362330E-02
     6 -.88941336579239E-06
     7 0.27857831880097E-06
     8 -.93957304058067E-05
     9 -.24951476107363E-05
    10 0.70308409648666E-06
    11 -.25742325230334E-04
    12 0.98263321461745E-05
    13 -.28047300581318E-05
    14 0.10146715208847E-03
    15 -.25307633921542E-04
    16 0.71586347390972E-05
    17 -.25995186191453E-03
    18 0.57611138315648E-04
    19 -.15949324387284E-04
    20 0.58608483223005E-03
    21 -.10046282575328E-04
    22 -.10292624867683E-04
    23 0.20338907443011E-04
    24 -.16174981508770E-06
    25 0.35421990147727E-05
    26 -.93825389393572E-06
    27 0.24532842109163E-04
    28 0.25132462746754E-04
    29 -.49665304855916E-04
    30 0.40248573922176E-06
    31 -.86743662934192E-05
    32 0.22803045681576E-05
    33 0.67736708261673E-07
    34 0.22442718931683E-05
    35 -.15172572203058E-05
    36 0.26808007696795E-06
    37 -.31090402395715E-05
    38 0.92447702279482E-06
    39 -.35895840751506E-06
    40 0.98033531701631E-07
    41 0.11111371475789E-05
    42 0.34341614281377E-06
    43 -.35516494593516E-06
    44 0.13497898657469E-05
    45 -.17634850439099E-04
    46 0.10484912167688E-03
    47 -.41827282055179E-03
    48 -.19873253376812E-04
    49 -.11038048548648E-04
    50 0.10882217313319E-04
    51 0.68631511326002E-04
    52 0.18127462538622E-04
    53 -.61908478228030E-04
    54 -.76611930921981E-04
    55 -.10247274628362E-03
    56 -.30038121265448E-03
    57 -.47655507626233E-05
    58 -.63023058703315E-05
    59 0.11067856632955E-04
    60 -.15184502864296E-05
    61 -.43509131786065E-05
    62 -.35484943358616E-05
    63 0.14186275909999E-04
    64 0.31142979730860E-04
    65 -.45329255640860E-04
    66 0.82971243377700E-05
    67 0.23424682891721E-04
    68 0.20505560356556E-04
    69 -.83650022609551E-06
    70 -.14321250098262E-05
    71 0.83161662442362E-06
    72 -.18326391124427E-05
    73 -.23372527314180E-06
    74 -.32491963887343E-06
    75 0.29549219336888E-05
    76 0.21551225976912E-05
    77 -.79081114318464E-06
    78 -.12836914892838E-05
    79 -.36890678585792E-06
    80 0.13991736908122E-05
    81 -.18083066400631E-04
    82 0.10632412794004E-03
    83 -.42078613247191E-03
    84 0.19560146304652E-05
    85 0.23224778455189E-04
    86 0.96644169077329E-05
    87 -.27867298215406E-04
    88 -.71276779793498E-04
    89 -.54461504066035E-04
    90 -.10141708930832E-03
    91 0.10461061646622E-03
    92 -.29359546446144E-03
    93 -.46428099087092E-05
    94 -.58502291609719E-05
    95 0.10493039069681E-04
    96 0.25345125589059E-05
    97 0.20267334513591E-05
    98 0.60540372062908E-05
    99 0.20797168808170E-04
   100 0.22171875642205E-04
   101 -.42969044450375E-04
   102 -.17828773650466E-04
   103 -.58406566819529E-05
   104 -.31346382149379E-04
   105 0.67394158232705E-06
   106 0.16391697644867E-05
   107 0.10367768048104E-05
   108 -.14105704679238E-05
   109 0.13673009431027E-05
   110 0.21978370250326E-06
   111 0.50638295335561E-06
   112 -.35664779551354E-05
   113 -.16107657503340E-05
   114 0.14486951889453E-07
   115 -.36804135261201E-06
   116 0.13965268078281E-05
   117 -.18109420775279E-04
   118 0.10649264702318E-03
   119 -.42123983065669E-03
   120 0.20586474793759E-04
   121 -.12920293011375E-04
   122 0.68473956047833E-05
   123 -.56706811621839E-04
   124 0.57559534038076E-04
   125 -.47991523558017E-04
   126 0.89554504614510E-04
   127 0.22662759952825E-04
   128 -.31447036163066E-03
   129 -.57090065110856E-05
   130 -.33819401770951E-05
   131 0.90909466881807E-05
   132 -.11611805275715E-05
   133 0.75017830609685E-05
   134 -.39508762739384E-05
   135 0.25863909112979E-04
   136 0.92340366701931E-05
   137 -.35097945783172E-04
   138 0.10155326451497E-04
   139 -.38362735780978E-04
   140 0.16641861237461E-04
   141 0.20684754825204E-05
   142 -.11255150713916E-05
   143 0.20315323530776E-05
   144 -.38739950510541E-06
   145 0.34941412267367E-06
   146 -.27373608254005E-05
   147 -.23877515681190E-05
   148 0.11606228029256E-05
   149 0.11774161417531E-07
   150 0.96578720161751E-06
   151 -.17244932016443E-05
   152 -.10229430663765E-03
   153 -.18607425050478E-03
   154 -.30924816128405E-06
   155 -.35762658263810E-04
   156 -.13117324403955E-05
   157 -.16977238232127E-05
   158 -.10214392996073E-03
   159 -.18628037112137E-03
   160 0.30843993083530E-04
   161 0.17861126611272E-04
   162 -.29273849932719E-05
   163 -.27947047250909E-04
   164 0.32054385239412E-03
   165 0.59101306333138E-03
   166 -.16604776023302E-04
   167 0.54443898667277E-04
   168 -.32904603542970E-04
   169 -.28020199145565E-04
   170 0.32073157496723E-03
   171 0.59127542261719E-03
   172 0.49237163006440E-04
   173 -.14496927290498E-04
   174 -.41069913392224E-04
   175 -.16934018027181E-05
   176 -.10225125877967E-03
   177 -.18697602379509E-03
   178 -.30746590235440E-04
   179 0.17987681380531E-04
   180 0.31121204477904E-05
   181 -.27746789375059E-04
   182 0.32008059697683E-03
   183 0.58716644347722E-03
   184 -.42957773963872E-04
   185 -.37240210442119E-04
   186 -.33405884635141E-04
 Sym=     2a   
 Ene= -.19039694463467E+02
 Spin= Alpha
 Occup= 2.000000
     1 0.88830883420958E-06
     2 -.21322091015789E-05
     3 -.45366887044008E-05
     4 -.34006043811466E-04
     5 0.25268149131038E-03
     6 0.63957794447946E-05
     7 0.34696487262043E-05
     8 0.31305719118042E-05
     9 -.28929820825880E-04
    10 -.15770628385324E-04
    11 -.18328601957431E-04
    12 0.79772833676450E-04
    13 0.44074301735079E-04
    14 0.64182664407450E-04
    15 -.15633318110875E-03
    16 -.87793465203566E-04
    17 -.17874867295221E-03
    18 0.42828197542421E-03
    19 0.23377498867890E-03
    20 0.87773972754118E-04
    21 -.22094785657489E-04
    22 -.11921044499749E-04
    23 0.34015830157238E-04
    24 -.12832442379206E-04
    25 0.45004329565444E-05
    26 0.49699987652931E-05
    27 0.45833032633534E-04
    28 0.18185230096199E-04
    29 -.64018262729733E-04
    30 0.34228783635194E-04
    31 -.29713775261562E-04
    32 -.20720164350532E-04
    33 0.49911260189931E-05
    34 0.46557104320830E-05
    35 0.47880822847958E-05
    36 0.29572073346727E-05
    37 -.13488617880595E-05
    38 -.33262394422747E-05
    39 -.96535055723146E-05
    40 -.48974292177560E-05
    41 -.30976470401249E-05
    42 0.15586485027496E-05
    43 0.43458312749936E+00
    44 0.63859936675989E+00
    45 0.33155919703732E-01
    46 -.21861379868442E-01
    47 0.11025081125157E-01
    48 -.63026491125469E-03
    49 -.12069488808268E-02
    50 0.84719670619320E-03
    51 0.11020700211054E-02
    52 0.19974592390044E-02
    53 -.14545981779657E-02
    54 -.87688453930744E-03
    55 -.10000154166292E-02
    56 0.10442699782562E-02
    57 -.78418093198976E-04
    58 0.35232787302594E-04
    59 0.43185305896381E-04
    60 0.43440960494986E-04
    61 -.80963476801701E-05
    62 0.25326538853611E-04
    63 0.36471553289608E-03
    64 -.15094500924321E-03
    65 -.21377052365287E-03
    66 -.20553475217064E-03
    67 0.42265208238148E-04
    68 -.12943496492178E-03
    69 -.31400643049248E-04
    70 0.24164974392276E-04
    71 -.63310845782857E-04
    72 0.28221575672062E-04
    73 -.19296246138185E-04
    74 0.24002514173924E-04
    75 0.13906807765133E-04
    76 -.13124469111218E-04
    77 0.60937898756160E-04
    78 0.11948139621194E-04
    79 -.47958669656204E-02
    80 -.70324308852075E-02
    81 -.44272249311287E-03
    82 0.53940919444716E-03
    83 -.14906354368869E-02
    84 0.87103829580491E-05
    85 -.21549238188999E-05
    86 -.13376897095269E-04
    87 0.58298375408045E-04
    88 -.69937576355030E-04
    89 -.12343558527508E-04
    90 0.31318373669505E-03
    91 -.51062504890917E-03
    92 -.50855111817686E-03
    93 -.13928014677515E-04
    94 0.18553393197495E-04
    95 -.46253785199806E-05
    96 0.82751995749172E-06
    97 0.10796055642727E-04
    98 0.11733116496079E-04
    99 0.53523347965213E-04
   100 -.58623360601017E-04
   101 0.51000126358040E-05
   102 0.40182339578603E-04
   103 -.44119351261510E-04
   104 -.49136408494644E-04
   105 -.57839490724082E-06
   106 0.68079261232869E-06
   107 -.12834265497155E-05
   108 0.24090814160357E-05
   109 -.13443245548309E-05
   110 0.97298338373621E-06
   111 -.16330832177776E-05
   112 0.43094541898292E-06
   113 0.74891402183889E-06
   114 -.87694063638527E-06
   115 -.25989100229396E-01
   116 -.38177363158978E-01
   117 -.20483220852932E-02
   118 0.14130619301939E-02
   119 -.55049866536427E-03
   120 -.12120206951461E-03
   121 0.20770213278240E-04
   122 -.39032391414708E-04
   123 0.27381124981631E-03
   124 -.78540047194500E-04
   125 0.21842074562469E-04
   126 0.10261323534539E-03
   127 0.31220461458389E-03
   128 -.42198345428882E-03
   129 -.13210242724370E-04
   130 0.78804556941494E-05
   131 0.53297870302202E-05
   132 -.89140991403296E-05
   133 0.10640186957527E-04
   134 -.16925380692922E-05
   135 0.72702545218564E-04
   136 -.33877093738446E-04
   137 -.38825451480119E-04
   138 0.23076311655445E-04
   139 -.42764975489513E-04
   140 0.19854504221891E-04
   141 0.61265607928105E-05
   142 0.84646290904845E-06
   143 0.16602779033570E-05
   144 -.40444365374063E-05
   145 -.14568135973742E-05
   146 -.23840704611209E-05
   147 -.41752073031993E-05
   148 0.32116443433548E-06
   149 0.15657390905256E-06
   150 0.46739454911887E-05
   151 0.77160506898171E-03
   152 0.11654891666733E-02
   153 -.21905477779803E-02
   154 0.28708702711648E-03
   155 0.85723864644323E-03
   156 0.30320760048359E-03
   157 0.16944166607592E-04
   158 -.65597076215420E-03
   159 -.41681541274245E-03
   160 -.55241696540967E-04
   161 0.13095268061384E-03
   162 -.10005402510324E-03
   163 -.38506334851768E-04
   164 0.71359916948173E-03
   165 0.50594515678615E-03
   166 -.29872741259145E-04
   167 0.98041545307577E-04
   168 -.85070569259546E-04
   169 -.64359634192363E-04
   170 0.30818248684773E-03
   171 0.60702190086633E-03
   172 0.34716896326365E-04
   173 -.45551277813301E-04
   174 -.26235901218694E-04
   175 -.43573015124175E-04
   176 0.77689852641307E-03
   177 0.31627263780352E-03
   178 0.13747802421864E-03
   179 0.71340399097378E-05
   180 0.10195065165350E-03
   181 0.75584584048027E-03
   182 0.92625090330247E-03
   183 -.27596082037321E-02
   184 0.19984703136792E-03
   185 0.15496688329878E-04
   186 -.92667117891549E-03
 Sym=     3a   
 Ene= -.19039615332563E+02
 Spin= Alpha
 Occup= 2.000000
     1 0.96246297101711E-06
     2 -.23256385666244E-05
     3 -.49000364892201E-05
     4 -.38914216211204E-04
     5 0.28674798894711E-03
     6 -.52954611044089E-05
     7 0.33297117781101E-05
     8 0.47189506142627E-05
     9 0.23487303919009E-04
    10 -.14517829648159E-04
    11 -.25969295306444E-04
    12 -.63546411933766E-04
    13 0.38118388202163E-04
    14 0.86741807575664E-04
    15 0.11886422524884E-03
    16 -.67569567687661E-04
    17 -.22893072774068E-03
    18 -.37118219208394E-03
    19 0.23765710440871E-03
    20 0.18032144029225E-03
    21 -.26321879195200E-04
    22 -.11796537005043E-04
    23 0.38118416200242E-04
    24 0.10665913229550E-04
    25 0.38674957901884E-05
    26 -.61091603909773E-05
    27 0.58876950164566E-04
    28 0.19751683925422E-04
    29 -.78628634089987E-04
    30 -.32413055024453E-04
    31 0.86898935189789E-05
    32 0.14181545751501E-06
    33 -.54160074198110E-05
    34 0.62901010399331E-05
    35 0.99172322855720E-06
    36 -.14595096166365E-05
    37 -.17360387674846E-05
    38 0.60991366208797E-06
    39 0.87258460710409E-05
    40 -.67030173388949E-05
    41 -.19404499944397E-05
    42 -.28403179464405E-05
    43 0.25907061863627E-01
    44 0.38084727207645E-01
    45 0.18962612177018E-02
    46 -.99870430057081E-03
    47 -.71560770405797E-03
    48 -.47038130339448E-04
    49 -.74253938377522E-04
    50 0.47857585513931E-04
    51 0.10290979150171E-03
    52 0.22498159962311E-03
    53 -.10996852075774E-03
    54 0.17245268387042E-03
    55 0.50360016107895E-03
    56 -.41560101302051E-03
    57 0.24951331623807E-05
    58 -.51606227533993E-05
    59 0.26654895910185E-05
    60 0.20892212916707E-04
    61 -.16100155144506E-04
    62 0.24971973561415E-05
    63 0.37825583681448E-04
    64 -.10280095123001E-04
    65 -.27545488558447E-04
    66 -.98242277591562E-04
    67 0.58140367656672E-04
    68 -.13064698597438E-04
    69 -.39556804726279E-05
    70 0.30632020991598E-05
    71 -.64020030306036E-05
    72 0.38796375097894E-05
    73 -.22963089810147E-05
    74 0.20451218753609E-05
    75 0.14274647506493E-05
    76 -.18134078925101E-05
    77 0.65440665057926E-05
    78 0.12808118202500E-05
    79 -.70505765598645E-02
    80 -.10346754329482E-01
    81 -.61014616145619E-03
    82 0.48494145507961E-03
    83 -.17188466079911E-03
    84 0.10547670026858E-04
    85 -.57310293552220E-04
    86 -.18623409018372E-04
    87 -.16295260714280E-04
    88 0.17796325062866E-03
    89 -.51652590363574E-05
    90 -.36233065807280E-03
    91 0.48119710146466E-05
    92 -.37939222272682E-03
    93 -.62390995163945E-05
    94 -.26149629000119E-05
    95 0.88540624164064E-05
    96 0.13045896547175E-04
    97 0.23334872428182E-05
    98 0.83223101461657E-05
    99 0.16465366610880E-04
   100 0.36889560515577E-04
   101 -.53354927126457E-04
   102 -.50414119876141E-04
   103 -.24375188105673E-04
   104 -.33742181850308E-04
   105 0.35935924612190E-05
   106 0.54782122809861E-05
   107 -.22658501012851E-05
   108 -.36167406586025E-05
   109 -.25647785350683E-05
   110 0.43366420795428E-05
   111 -.12045695574274E-05
   112 -.47850144982071E-05
   113 -.12966851675638E-05
   114 -.37590581283908E-05
   115 0.43455652265963E+00
   116 0.63856336938455E+00
   117 0.33144597713222E-01
   118 -.21839356579494E-01
   119 0.10978575707718E-01
   120 0.14512354964428E-02
   121 -.38821110636761E-04
   122 0.67595488022917E-03
   123 -.24337101397276E-02
   124 0.11924854572797E-03
   125 -.11667300542512E-02
   126 0.14041052567448E-02
   127 -.36360874631361E-03
   128 0.79611365487040E-03
   129 0.34890307011164E-04
   130 -.76235730144346E-04
   131 0.41345423133182E-04
   132 0.30673783418373E-04
   133 -.11856750508492E-04
   134 -.42354415717066E-04
   135 -.15718724412971E-03
   136 0.35930532326966E-03
   137 -.20211807913994E-03
   138 -.14134103481118E-03
   139 0.62958838229001E-04
   140 0.20819191699189E-03
   141 -.94676294333954E-05
   142 0.78480494997347E-06
   143 -.54860466470862E-04
   144 0.29023918302104E-04
   145 -.31110121261164E-04
   146 0.58544710322131E-04
   147 -.16321760502794E-04
   148 0.30057194930833E-04
   149 0.15058329061586E-04
   150 0.25473424325924E-04
   151 0.13537682706520E-04
   152 0.83775079362098E-03
   153 0.13814278369780E-03
   154 -.34395644555987E-04
   155 0.16417853997956E-03
   156 0.14120030262229E-03
   157 0.77415703286290E-03
   158 0.11506881679352E-02
   159 -.22093836101729E-02
   160 -.85248901652677E-03
   161 -.21704512931085E-03
   162 0.38359119186429E-03
   163 -.33687982009167E-04
   164 0.40460600491157E-03
   165 0.52605951712991E-03
   166 0.66483800362887E-05
   167 0.53433138401730E-04
   168 -.67842988902480E-04
   169 0.75350252823557E-03
   170 0.98382642894961E-03
   171 -.27134136770564E-02
   172 -.21885530136282E-03
   173 0.27539780513480E-03
   174 -.88913032082457E-03
   175 0.47956213574364E-04
   176 -.55138457166160E-03
   177 -.49647501843049E-03
   178 -.59686927826532E-04
   179 -.12957474039393E-03
   180 -.85318048063558E-04
   181 0.13797115396191E-04
   182 0.79968191691004E-03
   183 0.33212975563189E-03
   184 -.69258156400171E-04
   185 -.63577324439773E-04
   186 -.15408985118290E-03
 Sym=     4a   
 Ene= -.19039525519258E+02
 Spin= Alpha
 Occup= 2.000000
     1 0.93766492388733E-06
     2 -.22711136556664E-05
     3 -.47697021234617E-05
     4 -.38570231272492E-04
     5 0.28277459552249E-03
     6 0.67454096226525E-06
     7 -.68188667215249E-05
     8 0.38019573252298E-05
     9 -.38279957340007E-05
    10 0.30720856427271E-04
    11 -.21744671221582E-04
    12 0.13410962194653E-04
    13 -.84493275034284E-04
    14 0.74768658803667E-04
    15 -.36762916015980E-04
    16 0.16427590782044E-03
    17 -.20428666923617E-03
    18 0.26447268592167E-04
    19 -.46271609823130E-03
    20 0.12002361008984E-03
    21 -.55205353346908E-05
    22 -.30857863712456E-04
    23 0.36378399047147E-04
    24 0.27767512093741E-06
    25 0.99451439560863E-05
    26 -.34124915143679E-05
    27 0.17307647506776E-05
    28 0.69176839745449E-04
    29 -.70907604496126E-04
    30 0.30025996920165E-05
    31 -.17549418891745E-04
    32 0.28645116999079E-04
    33 -.19705693677132E-05
    34 -.37745680836814E-05
    35 0.35095432047218E-05
    36 0.32827763030698E-06
    37 -.54165012749438E-05
    38 -.34333360615751E-05
    39 0.23155186060443E-05
    40 0.10480615767431E-04
    41 -.12752102438631E-05
    42 0.23567592811227E-05
    43 0.52047747472109E-02
    44 0.76611338251077E-02
    45 0.32907824148724E-03
    46 -.14778919464623E-03
    47 0.20552630230290E-03
    48 0.24977403375645E-04
    49 0.61646345982081E-05
    50 0.49971390491166E-05
    51 -.11746653005628E-03
    52 -.51107336024985E-04
    53 -.41030629550139E-04
    54 0.89377552922695E-04
    55 -.32112050547463E-03
    56 -.38330906344219E-03
    57 0.19671095901752E-05
    58 -.13100676543925E-04
    59 0.11133566953750E-04
    60 -.39257656067356E-05
    61 -.79083879621980E-05
    62 -.43572221530836E-05
    63 0.12168398282570E-04
    64 0.54895764715224E-04
    65 -.67064162997794E-04
    66 0.29496246763156E-04
    67 0.36492243152414E-04
    68 0.50030581688363E-05
    69 -.12070551445828E-05
    70 0.10774103069274E-05
    71 -.45692913311278E-05
    72 -.34265015280654E-05
    73 -.46028253832139E-05
    74 -.13956949843807E-05
    75 0.50459359415922E-05
    76 0.31573277716447E-05
    77 0.75260425996221E-05
    78 -.10153910930148E-05
    79 0.43530265108758E+00
    80 0.63965643103304E+00
    81 0.33205676981351E-01
    82 -.21876227817764E-01
    83 0.10960179979413E-01
    84 -.58807650245632E-03
    85 0.11842065217024E-02
    86 0.90805764040159E-03
    87 0.93786043266244E-03
    88 -.20150444140329E-02
    89 -.15529852763120E-02
    90 -.24542559304073E-03
    91 0.12744527566806E-02
    92 0.10053081154498E-02
    93 -.16946033158288E-04
    94 -.17909564994457E-04
    95 0.34855598152745E-04
    96 -.74766182189329E-04
    97 0.41924035446824E-04
    98 0.11327026613682E-04
    99 0.83807990016423E-04
   100 0.82248167047839E-04
   101 -.16605615706426E-03
   102 0.35236241642260E-03
   103 -.21071750005022E-03
   104 -.51128462630163E-04
   105 0.20277678518363E-05
   106 0.24237622791460E-04
   107 -.51244174522715E-04
   108 0.40668454905142E-04
   109 -.27295420690538E-04
   110 0.34854614311531E-04
   111 -.43388990960719E-04
   112 -.52227626142832E-05
   113 0.33896660298661E-04
   114 -.24093087681708E-04
   115 0.67493602703308E-02
   116 0.99337897043643E-02
   117 0.43264799140922E-03
   118 -.31188730429966E-04
   119 -.12004958741772E-02
   120 0.27858441404584E-04
   121 -.67731631642381E-05
   122 0.62051032618428E-05
   123 -.14683273905564E-03
   124 -.18518319687616E-04
   125 -.31211456664223E-04
   126 -.62864040997998E-03
   127 -.26939920822286E-04
   128 -.40763090133396E-03
   129 0.11207923767936E-04
   130 -.81601992870130E-05
   131 -.30477244809230E-05
   132 -.18471701569010E-04
   133 0.30530240580800E-05
   134 -.13635065574182E-04
   135 -.65314545670064E-04
   136 0.69283043247646E-04
   137 -.39684975775816E-05
   138 0.41834192140611E-04
   139 -.10332197835452E-04
   140 0.61438035906420E-04
   141 -.13002972798418E-05
   142 0.37753613749847E-06
   143 -.32484395662878E-05
   144 0.23974535513915E-05
   145 -.23474131509405E-05
   146 0.38245501490190E-05
   147 -.65292168618092E-06
   148 0.18408952704950E-05
   149 0.53368886559273E-06
   150 0.21091716205800E-05
   151 0.71373615826611E-04
   152 -.55592682165516E-03
   153 -.57004847432388E-03
   154 0.14157105504808E-03
   155 0.42656741965192E-04
   156 -.96405406902196E-04
   157 -.18869991205727E-04
   158 0.77032786812859E-03
   159 0.21852279209577E-03
   160 -.74024294074785E-04
   161 -.11643935297053E-03
   162 0.12137868420334E-03
   163 0.75458720211258E-03
   164 0.98882308297711E-03
   165 -.27233362418829E-02
   166 -.24106192771152E-03
   167 -.21428690359581E-03
   168 -.90077991178409E-03
   169 -.20118288251646E-04
   170 0.77117508625979E-03
   171 0.46765587952207E-03
   172 0.80349105099643E-04
   173 -.21526648739357E-04
   174 -.12977600433404E-03
   175 0.77109400658259E-03
   176 0.11992447552437E-02
   177 -.21855092974704E-02
   178 0.65466454259228E-03
   179 -.66666075455731E-03
   180 0.23253183375885E-03
   181 -.10877447559433E-04
   182 0.39770211752035E-03
   183 0.42604949470660E-03
   184 -.48519409195565E-04
   185 -.93692680865494E-05
   186 -.85978459500684E-04
 Sym=     5a   
 Ene= -.92666979271744E+01
 Spin= Alpha
 Occup= 2.000000
     1 -.29289371100360E+00
     2 -.21826429531661E+00
     3 0.82942665833985E+00
     4 0.29072331397410E-01
     5 -.10585821539360E-01
     6 -.63277204069092E-04
     7 0.19045076833099E-04
     8 -.66926211071420E-03
     9 -.54748418295209E-04
    10 0.16146895246528E-04
    11 -.57409653845244E-03
    12 0.41627956501776E-04
    13 -.11919209839050E-04
    14 0.42524070663116E-03
    15 -.12040771234482E-03
    16 0.34170234341845E-04
    17 -.12350617417392E-02
    18 0.26945352479295E-03
    19 -.74848357928544E-04
    20 0.27431414708057E-02
    21 -.44907346851492E-04
    22 -.46534383018203E-04
    23 0.91441729869695E-04
    24 -.61037849849994E-06
    25 0.15577731800872E-04
    26 -.39986906108386E-05
    27 0.10520226163360E-03
    28 0.10794730292770E-03
    29 -.21314956456130E-03
    30 0.16707359541848E-05
    31 -.37023196554486E-04
    32 0.97132634708771E-05
    33 0.67155081692127E-06
    34 0.89295244540534E-05
    35 -.71669735010576E-05
    36 0.95251625403171E-06
    37 -.12349078157600E-04
    38 0.43650223215698E-05
    39 -.18534962202206E-05
    40 0.36886394599388E-06
    41 0.52504816432129E-05
    42 0.12646941660984E-05
    43 -.78446237938649E-07
    44 0.62241451225728E-05
    45 -.90392683483211E-04
    46 0.50465548139287E-03
    47 -.18710027918625E-02
    48 -.73543892958835E-04
    49 -.40175400636225E-04
    50 0.32181219967879E-04
    51 0.28221678064639E-03
    52 0.76165019853570E-04
    53 -.20464387523383E-03
    54 -.35919124073319E-03
    55 -.48148730739732E-03
    56 -.13573829027222E-02
    57 -.14389915231416E-04