 operating system is UNIX !

 force (c-17-29.gp.local) : TURBOMOLE V7.2 ( 21454 ) 4 Oct 2017 at 12:24:43
 Copyright (C) 2017 TURBOMOLE GmbH, Karlsruhe


    2018-03-04 02:07:54.812 



                             T U R B O M O L E   

                          a o f o r c e - program

                        using direct algorithms for

                       SCF level calculations of
                         * harmonic force constants
                         * hyperpolarizabilities
                         * IR and RAMAN intensities
                         * VCD intensities

                       DFT level calculations of
                         * harmonic force constants
                         * IR intensities
                                                   
       Stephan Boecker, Peter Deglmann, Filipp Furche and Marco Haeser
                          Quantum Chemistry Group
                          Universitaet  Karlsruhe
                                   Germany

 
 
 
 
     References :
 
       RI-J implementation:
         Peter Deglmann, Klaus May, Filipp Furche, Reinhart Ahlrichs
                 Chem. Phys. Lett. 384:103 (2004)
 
       Efficiency, technical details:
         Peter Deglmann, Filipp Furche, Reinhart Ahlrichs
                 Chem. Phys. Lett. 362:511 (2002)
 
       Search of lowest eigenvalues by iterative diagonalization:
         Peter Deglmann, Filipp Furche
                 J. Chem. Phys. 117:9535 (2002)
 
       Vibrational circular dichroism implementation:
        Kevin Reiter, Michael Kuehn, Florian Weigend
                 J. Chem. Phys. 146:054102 (2017)  
 
 


              +--------------------------------------------------+
              | Atomic coordinate, charge and isotop information |
              +--------------------------------------------------+

                    atomic coordinates            atom    charge  isotop
          0.35729007    0.18056993    3.04091202    cl    17.000     0
          2.68894815    1.15039794   -2.40772409    o      8.000     0
         -0.53518703   -3.35479122   -1.73353636    o      8.000     0
         -2.83466124    1.73155014   -1.80448932    o      8.000     0
          1.04600532    1.86775587   -2.77934490    h      1.000     0
         -2.16541775    1.71612925   -0.08033015    h      1.000     0
          0.83083827   -2.38179513   -2.46812979    h      1.000     0
         -2.72685811   -0.04938891   -2.21529595    h      1.000     0
         -0.45203649   -2.77218282    0.01981446    h      1.000     0
          2.55216568    0.93789442   -0.57523020    h      1.000     0
 
       center of nuclear mass  :    0.00950193   -0.02067598    0.05048059
       center of nuclear charge:   -0.00613985   -0.02967327   -0.08444703

              +--------------------------------------------------+
              |               basis set information              |
              +--------------------------------------------------+

              we will work with the 1s 3p 5d 7f 9g ... basis set
              ...i.e. with spherical basis functions...

   type   atoms  prim   cont   basis
   ---------------------------------------------------------------------------
    cl       1     63     37   def2-TZVP   [5s5p2d1f|14s9p3d1f]
    o        3     46     31   def2-TZVP   [5s3p2d1f|11s6p2d1f]
    h        6      8      6   def2-TZVP   [3s1p|5s1p]
   ---------------------------------------------------------------------------
   total:   10    249    166
   ---------------------------------------------------------------------------

   total number of primitive shells          :   53
   total number of contracted shells         :   70
   total number of cartesian basis functions :  186
   total number of SCF-basis functions       :  166

 
             FOUND RI-J FLAG !
 

 NOTE: THIS IS A PRELIMINARY IMPLEMENTATION. THE RI APPROXIMATION IS
       PRESENTLY USED FOR CPKS CONTRIBUTIONS TO THE HESSIAN ONLY! SEE
       MANUAL FOR FURTHER DETAILS.

  
 AUXILIARY BASIS SET information:

              we will work with the 1s 3p 5d 7f 9g ... basis set
              ...i.e. with spherical basis functions...

   type   atoms  prim   cont   basis
   ---------------------------------------------------------------------------
    cl       1     77     51   def2-TZVP   [8s4p3d1f1g|14s5p5d2f1g]
    o        3     70     49   def2-TZVP   [6s4p3d1f1g|12s5p4d2f1g]
    h        6     16     11   def2-TZVP   [3s1p1d|5s2p1d]
   ---------------------------------------------------------------------------
   total:   10    383    264
   ---------------------------------------------------------------------------

   total number of primitive shells          :   59
   total number of contracted shells         :   92
   total number of cartesian basis functions :  318
   total number of SCF-basis functions       :  264


 symmetry group of the molecule :   c1 

 the group has the following generators :
   c1(z)

    1 symmetry operations found

 there are 1 real representations :   a   

 maximum number of shells which are related by symmetry :  1


 determining totally symmetric integral contributions 
    - equivalent to irreducible tensor elements - 
 which can be formed within each triple of representations :

             representation triple      contributions

              a     a     a               1

    mo occupation :
   irrep   mo's   occupied
    a      166       24
 
 number of basis functions   :                    166
 number of occupied orbitals :                     24
 
  MOs are in ASCII format !


 reading orbital data $scfmo  from file mos
 orbital characterization : scfconv=7
 time elapsed for calculating density matrices :   0.002 sec

 number of non-frozen orbitals          :   166
 number of non-frozen occupied orbitals :    24
 Blocking parameters 
 shells:
    index      start shell   last shell  start bf    last bf    #bf 
       1             1          70             1        186    186
  
           ----------------------
               RI - INFORMATION
           ----------------------

 biggest AO integral is expected to be    10.437462037

 Threshold for integral neglect (rithr2):   0.13E-10
 Threshold for integral neglect (rithr1):   0.13E-10

 Contributions to RI integral batches: 
  neglected integral batches:                   201
  direct contribution:                            0
  memory contribution:                  2284
 Core memory available (ricore):              3000 MiB
 Core memory needed for (P|Q) and Cholesky:      1 MiB
 Core memory used for integrals:                40 MiB
 
 ****************************************
 Memory allocated for RIDFT: 41 MiB
 ****************************************
 
  
           ------------------
           density functional
           ------------------
 PBE0 hybrid functional
 exchange:    3/4 (LDA+PBE) + 1/4 HF
 correlation: LDA (PW) + PBE

 iterations will be done with small grid
  
 spherical integration : Lebedev's spherical grid
 spherical gridsize    :                     3
    i.e. gridpoints    :                   302
 value for diffuse not defined
 radial integration    : Chebyshev 2nd kind (scaling 3)
 radial gridsize       :                     3
 integration cells     :                    10
 partition function    : becke
 partition sharpness   :                     3
  
 
 Derivatives of quadrature weights will be included
 
          Overall gridpoints after grid construction =         47369
 Ordering of quadrature gridpoints disabled.
 
 
 
 
 OCCUPIED-OCCUPIED TENSOR SPACES :

          IRREP   tensor space dimension   number of roots

           a               576                  24
 
 OCCUPIED-VIRTUAL TENSOR SPACES :

          IRREP   tensor space dimension   number of roots

           a              3408                  24
 
 
 
 
 CONSTRUCTING integral bounds

 setting up bound for integral derivative estimation

 increment for numerical differentiation : 0.00050000
 
 machine precision:   2.220446049250313E-016

 integral neglect threshold       :  0.10E-09
 integral storage threshold THIZE :  0.10E-04
 integral storage threshold THIME :         5

 
 
 
 PREPARING NUMERICAL INTEGRATION
 
 Remaining core memory for DFT =                  4976 MB
 
 Memory needed per atom    =                   407 KiB
 
     i. e.                    10 atoms per loop

 Calculating ground state density on molecular grid

 Integral of ground state density: N =   47.99997080258806    


 
 
 CONSTRUCTING first deriv. of <mu|x,y,z|nu> -> Dip. deriv.
  dipole integral derivatives will be neglected if
  expon. factor <0.268817E-11
      ...terminated. cpu:       0.01       wall:       0.01
 
 
 
 
 CONSTRUCTING first deriv. of  <mu|nu>
                               <mu|h|nu>    -> RHS
              second deriv. of <mu|nu>      -> Hessian
                               <mu|h|nu>    -> Hessian
                               nucl. rep.   -> Hessian
     integrals are neglected if expon. factor <  2.688172043010752E-013
  _________________________________
 |                                 |
 |         DFTD3 V3.1 Rev 0        |
 | S.Grimme, University Bonn       |
 |         June 2014               |
 |   see standalone version        |
 |       dftd3 -h for options      |
 |_________________________________|
 
 Please cite DFT-D3 work done with this code as:
 S. Grimme, J. Antony, S. Ehrlich and H. Krieg,
 J. Chem. Phys, 132 (2010), 154104.
 If used with BJ-damping cite also
 S. Grimme, S. Ehrlich and L. Goerigk,
 J. Comput. Chem. 32 (2011), 1456-1465
 For DFT-D2 the reference is
 S. Grimme, J. Comput. Chem., 27 (2006), 1787-1799
 
      ...terminated. cpu:       0.33       wall:       0.35
 
 
 
 
 CONSTRUCTING second deriv. of 2e energy    -> Hessian
   treating Coulomb (and exchange) contribution
     integrals will be neglected if total contribution <  2.688172043010752E-009
      ...terminated. cpu:      24.59       wall:      24.59
   treating exchange-correlation contribution
      ...terminated. cpu:      32.04       wall:      32.04
 
 
 
 
 CONSTRUCTING S(i,j)xi
      ...terminated. cpu:       0.00       wall:       0.02
 
 
 
 
 CONSTRUCTING <i|x,y,z|j>*S(i,j)xi          -> Dip. deriv.
      ...terminated. cpu:       0.01       wall:       0.01
 
 
 
 
 CONSTRUCTING epsilon(i)*S(i,j)xi*S(i,j)chi -> Hessian
      ...terminated. cpu:       0.00       wall:       0.00
 
 
 
 
 CONSTRUCTING G(a,i)[S(k,l)xi]              -> RHS
              G(i,j)[S(k,l)xi]*S(i,j)chi    -> Hessian
 
         Maximum core memory set to                   5000 MB
         This corresponds to                 18459 vectors in CAO basis
      ...terminated. cpu:      33.91       wall:      33.93
 
 
 
 
 CONSTRUCTING G(mu,nu)[D(kap,lam)]xi
 
          Maximum core memory set to                   5000 MB
          Atoms treated simultaneously :                    10
      ...terminated. cpu:      37.77       wall:      37.94
 
 
 
 
 CONSTRUCTING F(a,i)xi                      -> RHS
              F(i,j)xi*S(i,j)chi            -> Hessian
 
        Maximum core memory set to                  5000 MB
        This corresponds to                 31509 vectors in CAO basis
      ...terminated. cpu:       0.05       wall:       0.11
 
 
 
 
 CONSTRUCTING epsilon(i)*S(a,i)xi           -> RHS
      ...terminated. cpu:       0.02       wall:       0.03
 
 
 
 
 SOLVING CPHF equations
 
 Residuum convergence criterium   :  1.000000000000000E-005
 
 Maximum number of Davidson iterations set to                    25
  Switching to small grid
        preparing numerical integration ....
          Overall gridpoints after grid construction =         12583

 Calculating ground state density on molecular grid

 Integral of ground state density: N =   48.00093240265655    




                       Nonorthonormal Krylov Space Iteration


 total number of roots to be determined:  24


 maximum core memory set to  5000 MB,
 corresponding to    18295 vectors in CAO basis


 maximum number of simultaneously treated vectors (including degeneracy):       24


 Iteration IRREP Converged      Max. Euclidean
                 roots          residual norm

    1       a        0        1.081890218940838D-01
 
    2       a        0        1.157635618640758D-02
 
    3       a        0        8.856742600164643D-04
 
    4       a        0        6.442354283583560D-05
 
    5       a       24        4.565194216302828D-06
 

 converged!

  Switching to fine grid
        preparing numerical integration ....
          Overall gridpoints after grid construction =         47369

 Calculating ground state density on molecular grid

 Integral of ground state density: N =   47.99997080258818    



 Iteration IRREP Converged      Max. Euclidean
                 roots          residual norm

    6       a        0        1.525743992569578D-04
 

 NOTE: Residual norms are larger than 1.00D-05 due to mgrid option!

      ...terminated. cpu:     108.28       wall:     110.47
 
 
 
 
 CONSTRUCTING <a|x,y,z|i>*U(a,i)xi          -> Dip. deriv.
      ...terminated. cpu:       0.02       wall:       0.02
 
 
 
 
 CONSTRUCTING RHS(a,i)xi*U(a,i)chi          -> Hessian
      ...terminated. cpu:       0.00       wall:       0.04
 
 
 
 

            -----------------------
            permanent dipole moment
            -----------------------

                                   x                y                z
    electronic part       :    0.2198217470     1.3821641121     3.3846969539
     nuclear   part       :   -0.2885729378    -1.3946435593    -3.9690102780
     total                :   -0.0687511908    -0.0124794472    -0.5843133242

 with reference to the point :   0.0000000        0.0000000        0.0000000
 (given in atomic units)
    | dipole |       :    1.4957692257  debye

   ***  dipole moment & cartesian dipole gradients written onto
        $dipole, $dipgrad,  file=<dipgrad>  ***

             -----------------------------------
             rotational and vibrational analysis
             -----------------------------------


            ==============================================================
            ATOMIC WEIGHTS (average over the natural occurance of isotops)
            ==============================================================
            ('*' denotes special isotop !)
              1     cl               35.45300
              2     o                15.99940
              3     o                15.99940
              4     o                15.99940
              5     h                 1.00797
              6     h                 1.00797
              7     h                 1.00797
              8     h                 1.00797
              9     h                 1.00797
             10     h                 1.00797

          -------------------------------------------------
          CARTESIAN FORCE CONSTANT MATRIX (hartree/bohr**2)
         (translational & rotational space projected out)
          -------------------------------------------------

   ATOM              1 cl                          2 o 
                  dx        dy        dz        dx        dy        dz
   1 cl    dx  0.0077129
           dy  0.0000590 0.0074565
           dz  0.0025799 0.0014300 0.0292535
   2 o     dx  0.0018339-0.0010802 0.0064354 0.4555608
           dy -0.0012696 0.0044165 0.0033245-0.1751472 0.1080822
           dz  0.0106627 0.0044103-0.0144172 0.0368937-0.0898355 0.5124746
   3 o     dx  0.0043985-0.0020420-0.0019908-0.0007047-0.0090920 0.0002406
           dy -0.0020219-0.0026936-0.0093795-0.0076220-0.0079962 0.0008064
           dz -0.0030983-0.0136096-0.0096405 0.0016169 0.0031511 0.0056456
   4 o     dx -0.0014823 0.0034389-0.0091668-0.0131869 0.0017641 0.0009964
           dy  0.0023889 0.0035882 0.0034698 0.0004453 0.0046989-0.0001920
           dz -0.0123260 0.0066668-0.0100104 0.0035854-0.0005760 0.0055860
   5 h     dx -0.0030301 0.0000250 0.0006248-0.3961073 0.1709905-0.1005394
           dy -0.0000946-0.0008480-0.0010136 0.1644027-0.0855278 0.0471790
           dz  0.0005128-0.0011836 0.0013146-0.0534123 0.0278252-0.0630120
   6 h     dx -0.0008897-0.0031451 0.0035003 0.0004323-0.0002425-0.0027888
           dy -0.0021442-0.0035163-0.0019424-0.0002360-0.0015568 0.0005013
           dz  0.0061654-0.0046969-0.0002640-0.0033603 0.0010771-0.0025236
   7 h     dx -0.0016665-0.0010280-0.0006761-0.0038052 0.0044410 0.0006993
           dy -0.0011318-0.0023227 0.0009606 0.0046747 0.0066448 0.0025230
           dz -0.0007411 0.0010657 0.0014386 0.0003368 0.0014190-0.0056859
   8 h     dx -0.0006556 0.0010626 0.0013095 0.0017731 0.0022788 0.0006704
           dy  0.0011594-0.0025260 0.0007848 0.0019641-0.0020225 0.0002779
           dz  0.0014945 0.0006278 0.0009842 0.0001826-0.0002903-0.0015221
   9 h     dx -0.0045920 0.0015756 0.0009903-0.0003250 0.0010684-0.0011098
           dy  0.0016509 0.0010350 0.0037314 0.0008489-0.0007179-0.0025483
           dz  0.0020952 0.0074902-0.0006942-0.0016160-0.0034381-0.0025725
  10 h     dx -0.0016291 0.0011343-0.0036065-0.0454710 0.0052086 0.0542750
           dy  0.0014039-0.0045895-0.0013656 0.0117497-0.0260211 0.0368780
           dz -0.0073450-0.0022006 0.0020355 0.0093378 0.0573429-0.4339728

   ATOM              3 o                           4 o 
                  dx        dy        dz        dx        dy        dz
   3 o     dx  0.3157329
           dy  0.2208869 0.2350306
           dz -0.1208267 0.0443654 0.5266765
   4 o     dx  0.0011987 0.0064552-0.0001786 0.0951476
           dy  0.0085696-0.0098693 0.0015986-0.0433771 0.5204361
           dz  0.0009171-0.0006728 0.0057847 0.1588414 0.0897167 0.4621271
   5 h     dx -0.0029831 0.0006878-0.0000644 0.0063238 0.0017912-0.0052894
           dy -0.0000435 0.0024480-0.0015496 0.0022307-0.0050099-0.0011673
           dz -0.0001288-0.0009161-0.0010966-0.0042479-0.0009087-0.0040222
   6 h     dx -0.0018043-0.0002928-0.0017028-0.0711536-0.0032966-0.1451548
           dy -0.0006735 0.0013171 0.0014606 0.0140133-0.0483309 0.0261974
           dz -0.0022629 0.0024118-0.0030729-0.1408514-0.0198538-0.3874911
   7 h     dx -0.2789781-0.1859276 0.1537749 0.0005618-0.0025123-0.0010724
           dy -0.1965828-0.1513934 0.1041056-0.0028672-0.0011036 0.0011375
           dz  0.1155766 0.0716982-0.1142827-0.0003592 0.0009119-0.0012876
   8 h     dx  0.0002699-0.0066503 0.0024563-0.0178329 0.0380326-0.0019564
           dy -0.0065998 0.0018492-0.0026551 0.0202861-0.4633173-0.1193512
           dz  0.0016138-0.0017035-0.0053964-0.0081916-0.0719748-0.0639636
   9 h     dx -0.0366801-0.0269711-0.0332385-0.0010037-0.0015313 0.0005918
           dy -0.0160789-0.0691719-0.1382271-0.0012834 0.0001353-0.0024271
           dz  0.0047941-0.1082072-0.4008820 0.0003346-0.0031804-0.0028330
  10 h     dx -0.0004496 0.0014557 0.0012611 0.0014275-0.0005103 0.0018633
           dy  0.0016561 0.0004795 0.0013600-0.0006606-0.0012275 0.0004761
           dz  0.0020669 0.0015974-0.0037358 0.0028230 0.0004129-0.0038899

   ATOM              5 h                           6 h 
                  dx        dy        dz        dx        dy        dz
   5 h     dx  0.3960952
           dy -0.1730656 0.0937623
           dz  0.0985469-0.0486945 0.0819976
   6 h     dx  0.0004018-0.0001146 0.0044339 0.0714379
           dy -0.0004836 0.0015641 0.0007400 0.0034670 0.0587310
           dz  0.0053646 0.0000545-0.0022875 0.1393294 0.0221485 0.4026607
   7 h     dx  0.0029046 0.0020772 0.0002881 0.0003699 0.0004126 0.0008854
           dy  0.0014902-0.0052204 0.0000814 0.0007194 0.0000281-0.0010337
           dz -0.0000966 0.0010520 0.0014720 0.0006636-0.0005625 0.0003031
   8 h     dx -0.0022083-0.0043851-0.0000328 0.0032151-0.0163718-0.0062656
           dy -0.0040582-0.0005367 0.0003388 0.0004721-0.0065931-0.0003109
           dz  0.0005042 0.0012883 0.0015224-0.0010078-0.0477506-0.0154639
   9 h     dx  0.0007157-0.0000035 0.0000719 0.0009922 0.0014665 0.0009630
           dy -0.0003625-0.0001943 0.0009026 0.0018949-0.0026853 0.0010567
           dz  0.0003461 0.0012869 0.0002090 0.0015597 0.0000623 0.0038351
  10 h     dx -0.0021123 0.0089963-0.0460319-0.0030015 0.0005497 0.0000323
           dy  0.0029850-0.0004373 0.0218150 0.0005382 0.0010421-0.0008532
           dz  0.0006032 0.0015644-0.0160973 0.0011673-0.0008547 0.0043040

   ATOM              7 h                           8 h 
                  dx        dy        dz        dx        dy        dz
   7 h     dx  0.2851239
           dy  0.1850667 0.1446369
           dz -0.1526009-0.0951415 0.1418015
   8 h     dx -0.0042939 0.0029145-0.0000030 0.0206854
           dy  0.0025468 0.0020240-0.0008260-0.0174329 0.4694719
           dz  0.0012524-0.0008764 0.0015910 0.0081235 0.1177251 0.0824832
   9 h     dx -0.0012822 0.0067641 0.0389367-0.0003352 0.0018510-0.0032819
           dy -0.0035235 0.0081164 0.0246363 0.0011324 0.0009952 0.0032484
           dz  0.0001015-0.0068981-0.0253466-0.0031783 0.0043241-0.0008891
  10 h     dx  0.0010657-0.0010478-0.0017129-0.0006176-0.0001886-0.0006897
           dy -0.0015528-0.0014099-0.0042530-0.0005809 0.0006553-0.0002940
           dz -0.0026522-0.0048583-0.0000035-0.0011236-0.0003074 0.0006542

   ATOM              9 h                          10 h 
                  dx        dy        dz        dx        dy        dz
   9 h     dx  0.0430437
           dy  0.0178019 0.0637749
           dz -0.0041468 0.1077269 0.4250304
  10 h     dx -0.0005334-0.0020808-0.0002902 0.0513214
           dy -0.0020216-0.0012874 0.0008334-0.0135171 0.0327958
           dz  0.0002230 0.0019002 0.0041428-0.0051005-0.0545968 0.4465629
 

   *** projected hessian written onto $hessian (projected), file=<hessian> ***

 dipole moment in principle axis system (a.u.) :
    -0.0055357038     0.0266497130    -0.5878466402
 norm :  0.588476442744407     

 rotational constants b for rotations around axis of inertia
 and optical intensities for (1 <-- 0) transition

   b   :     0.0739052533     0.0738506225     0.1113977158   (cm**(-1))
   b   :        2215.6238        2213.9860        3339.6195     (MHz)
  int. :     0.0000306440     0.0007102072     0.3455636724     (a.u.)

   x   :     0.9789552911     0.1683359700     0.1153669767
   y   :    -0.1767927028     0.9819370128     0.0674095183
   z   :    -0.1019356578    -0.0863869442     0.9910330053

   ***  normal modes written onto $vibrational normal modes, file=<vib_normal_modes>  ***

 keyword $vibrational reduced masses missing in file <control>


   ***  vibrational spectroscopic data written onto$vibrational spectrum   
        file=<vibspectrum>  ***

          ---------------------------------------------------
          NORMAL MODES and VIBRATIONAL FREQUENCIES (cm**(-1))
          ---------------------------------------------------

 imaginary wave numbers indicate a negative curvature of the energy surface.
 zero frequency modes have no physical meaning except being generators of
 translations and rotations. each vibrational normal mode - given in terms of
 cartesian displacement vectors of all atoms - has been normalized to unity.
 to obtain mass-weigthed normal coordinates in a.u. divide the tabulated
 modes by sqrt(reduced mass * 1822.88853).
 band intensities or cross sections refer to independent non-degenerate normal
 modes, that is, the intensities of degenerate modes have yet to be added.
 dDIP/dQ is the normal mode derivative of the dipole moment.


       mode               1        2        3        4        5        6

     frequency           0.00     0.00     0.00     0.00     0.00     0.00

     symmetry                                                             

        IR                -        -        -        -        -        - 
|dDIP/dQ|   (a.u.)     0.0000   0.0000   0.0000   0.0000   0.0000   0.0000
intensity (km/mol)       0.00     0.00     0.00     0.00     0.00     0.00
intensity (  %   )       0.00     0.00     0.00     0.00     0.00     0.00
 
       RAMAN              -        -        -        -        -        - 
 
  1   cl          x  -0.32442  0.02647 -0.05730  0.15403  0.24154 -0.12457
                  y   0.00120  0.03588  0.57035  0.03923  0.00372 -0.07956
                  z  -0.08324  0.04796  0.04879 -0.05366  0.04091  0.30320
  2   o           x   0.24912 -0.01520 -0.01984  0.20351  0.27001  0.10816
                  y  -0.18591 -0.20788  0.11028  0.25438 -0.32810  0.11158
                  z   0.12889 -0.01326 -0.01707  0.00581 -0.00597  0.43682
  3   o           x   0.01767  0.16816 -0.02030  0.44887 -0.14580  0.11790
                  y  -0.05532 -0.29702  0.16441  0.05940 -0.01104  0.06213
                  z  -0.10533  0.26797  0.34247 -0.12371  0.12425  0.15296
  4   o           x   0.21082 -0.03856 -0.02464  0.15854  0.33160  0.07634
                  y   0.02751 -0.39487  0.15621 -0.07141  0.20369  0.04415
                  z  -0.42742 -0.04708 -0.10529 -0.09204  0.04559  0.21045
  5   h           x   0.31207 -0.04450 -0.01790  0.16954  0.33318  0.11831
                  y  -0.13273 -0.29773  0.07719  0.16572 -0.18131  0.10878
                  z  -0.04675 -0.05715 -0.08951 -0.01515 -0.00188  0.38654
  6   h           x   0.04000 -0.03722 -0.03677  0.12617  0.34999  0.00013
                  y   0.03522 -0.26056  0.30313 -0.05880  0.17640 -0.00397
                  z  -0.36104 -0.04639 -0.09926 -0.07937  0.03821  0.23960
  7   h           x   0.12582  0.12832 -0.01605  0.40724 -0.06278  0.14187
                  y  -0.11904 -0.28714  0.10339  0.14873 -0.15465  0.09714
                  z   0.01139  0.20696  0.26953 -0.08282  0.08842  0.24392
  8   h           x   0.18621  0.03364 -0.02005  0.26860  0.15943  0.11018
                  y   0.01589 -0.41601  0.12145 -0.05909  0.18507  0.05796
                  z  -0.38350  0.06353  0.04658 -0.11658  0.08116  0.15944
  9   h           x  -0.13415  0.14521 -0.03321  0.38164 -0.07085  0.03515
                  y  -0.02561 -0.18471  0.31326  0.03797  0.01738  0.00795
                  z  -0.10800  0.23174  0.29362 -0.11340  0.11125  0.17489
 10   h           x   0.06039 -0.00580 -0.03255  0.18035  0.27113  0.02889
                  y  -0.14667 -0.09959  0.26563  0.21915 -0.27737  0.05299
                  z   0.11935  0.00000  0.00000  0.00000  0.00000  0.42410

reduced mass(g/mol)    10.203    7.026   15.312    7.452    8.637    9.547


       mode               7        8        9       10       11       12

     frequency         104.64   108.15   140.95   172.95   173.71   218.97

     symmetry            a        a        a        a        a        a   

        IR               YES      YES      YES      YES      YES      YES
|dDIP/dQ|   (a.u.)     0.0007   0.0008   0.0010   0.0032   0.0033   0.0036
intensity (km/mol)       0.84     1.08     1.74    18.76    19.82    22.59
intensity (  %   )       0.10     0.13     0.20     2.19     2.31     2.64
 
       RAMAN             YES      YES      YES      YES      YES      YES
 
  1   cl          x   0.06991  0.14978  0.04581 -0.01720 -0.12934 -0.02843
                  y   0.15208 -0.06859  0.02222 -0.12960  0.02444 -0.01709
                  z  -0.02535 -0.03268  0.27396  0.01630  0.00887 -0.25922
  2   o           x   0.08659  0.20065 -0.27656  0.02068  0.31685 -0.21196
                  y  -0.34040  0.18234 -0.13894 -0.20210  0.00021 -0.09950
                  z   0.28420  0.21812 -0.12408 -0.14316 -0.25451  0.20232
  3   o           x   0.08301 -0.31664 -0.03621  0.24902 -0.08321  0.03557
                  y   0.07260  0.20083  0.31422  0.26684  0.19966  0.26762
                  z  -0.34708  0.14147 -0.22255  0.22252 -0.02999  0.14442
  4   o           x  -0.31623 -0.19773  0.21824 -0.24788 -0.00462  0.23119
                  y  -0.05221 -0.23726 -0.21755  0.16665 -0.23691 -0.13473
                  z   0.11695 -0.28871 -0.22572 -0.10757  0.26883  0.14705
  5   h           x   0.27751  0.22087 -0.34196  0.10228  0.25269 -0.25053
                  y  -0.02200  0.10453 -0.18420 -0.05969 -0.08420 -0.12761
                  z   0.09878  0.01561  0.02311 -0.20903 -0.14788  0.27973
  6   h           x  -0.20370 -0.25703  0.00808 -0.25776  0.09099  0.16344
                  y  -0.07180 -0.01668 -0.10576  0.27466 -0.19597 -0.09485
                  z   0.06967 -0.28259 -0.14765 -0.11519  0.23649  0.17775
  7   h           x   0.09020 -0.13426  0.00794  0.24310  0.00232  0.04622
                  y   0.24772 -0.08871  0.37629  0.23156  0.00344  0.32127
                  z  -0.12680  0.11072 -0.08611  0.16498 -0.11716  0.21511
  8   h           x  -0.10954  0.08744  0.26962 -0.05726  0.10279  0.26555
                  y  -0.00563 -0.26080 -0.25403  0.15691 -0.23103 -0.15581
                  z  -0.02234 -0.15306 -0.10431 -0.03676  0.25966  0.21279
  9   h           x  -0.04585 -0.19046 -0.00915  0.23648  0.04164  0.03662
                  y  -0.15496  0.24767  0.05418  0.36746  0.22737  0.18120
                  z  -0.28131  0.13307 -0.14160  0.20042 -0.03673  0.17676
 10   h           x  -0.14035 -0.01528 -0.04505 -0.00792  0.42358 -0.13093
                  y  -0.26285  0.11030  0.00313 -0.08518  0.00871 -0.05298
                  z   0.29542  0.20061 -0.09457 -0.12992 -0.25793  0.21754

reduced mass(g/mol)     8.789    8.882    9.779    6.782    6.724    7.599


       mode              13       14       15       16       17       18

     frequency         410.50   428.27   474.52   489.29   502.92   703.45

     symmetry            a        a        a        a        a        a   

        IR               YES      YES      YES      YES      YES      YES
|dDIP/dQ|   (a.u.)     0.0024   0.0030   0.0057   0.0062   0.0066   0.0022
intensity (km/mol)      10.46    15.71    57.23    67.85    78.03     8.45
intensity (  %   )       1.22     1.83     6.68     7.92     9.11     0.99
 
       RAMAN             YES      YES      YES      YES      YES      YES
 
  1   cl          x   0.00027 -0.00377 -0.00107  0.00438  0.00008  0.00057
                  y   0.00507 -0.00049  0.00352  0.00137 -0.00279  0.00048
                  z  -0.00190  0.00368  0.00422  0.00183  0.00223  0.00404
  2   o           x  -0.00619 -0.00827 -0.01528 -0.00808  0.01926 -0.01028
                  y   0.00284 -0.00266 -0.01333  0.00180  0.00437  0.01803
                  z   0.01075  0.02316 -0.00187  0.01179  0.02070 -0.00545
  3   o           x   0.00053 -0.00741 -0.00019 -0.00466  0.00768  0.02027
                  y  -0.00162 -0.00374  0.00019  0.01871  0.01378  0.00135
                  z   0.00462 -0.00510  0.03041 -0.01056  0.00842 -0.00734
  4   o           x  -0.01053  0.00924  0.01261 -0.00384  0.01650 -0.00666
                  y   0.00957 -0.00785 -0.00568  0.01379 -0.00141 -0.01785
                  z  -0.01850  0.00135  0.01403  0.02512 -0.00674 -0.00301
  5   h           x  -0.23235  0.08316  0.21501 -0.12689 -0.03938  0.04902
                  y  -0.23189  0.00556  0.49549 -0.37851 -0.26699  0.21203
                  z   0.50726 -0.32842 -0.00359 -0.19519 -0.24496  0.12275
  6   h           x  -0.08191 -0.00028  0.00608  0.05813  0.30508  0.41639
                  y   0.00908  0.38255 -0.43870 -0.27792 -0.18019  0.17635
                  z   0.01108 -0.00405  0.02022  0.00502 -0.10879 -0.16496
  7   h           x  -0.05476 -0.00623 -0.16776  0.41790 -0.21423  0.18622
                  y  -0.21506 -0.30506 -0.02156 -0.51124  0.20616 -0.13158
                  z  -0.36138 -0.38107 -0.29799  0.09252 -0.14810  0.13442
  8   h           x  -0.14612  0.19252  0.02839  0.01415 -0.74096 -0.23012
                  y  -0.01229 -0.08684  0.11133  0.10077 -0.04731 -0.06692
                  z   0.03870  0.36129 -0.45620 -0.33130  0.04305  0.17032
  9   h           x   0.28644  0.34182  0.18006 -0.15356  0.15750 -0.41984
                  y   0.27670  0.24091  0.24438  0.27006  0.00357  0.28925
                  z  -0.08933 -0.08967 -0.05387 -0.08063  0.00215 -0.08192
 10   h           x   0.47621 -0.37619 -0.17883 -0.10054 -0.16051 -0.07437
                  y  -0.17591  0.00629 -0.21622  0.20446  0.11731 -0.52028
                  z   0.01021  0.00442 -0.03286  0.02688  0.02292 -0.07204

reduced mass(g/mol)     1.020    1.022    1.035    1.032    1.030    1.028


       mode              19       20       21       22       23       24

     frequency         752.32   757.76   876.22  1693.34  1694.79  1721.56

     symmetry            a        a        a        a        a        a   

        IR               YES      YES      YES      YES      YES      YES
|dDIP/dQ|   (a.u.)     0.0129   0.0129   0.0016   0.0089   0.0089   0.0103
intensity (km/mol)     296.04   296.55     4.63   141.57   139.72   188.33
intensity (  %   )      34.55    34.61     0.54    16.52    16.30    21.98
 
       RAMAN             YES      YES      YES      YES      YES      YES
 
  1   cl          x  -0.00060 -0.00665  0.00049 -0.00106  0.00060 -0.00021
                  y  -0.00662  0.00073  0.00014 -0.00058 -0.00107 -0.00012
                  z   0.00060  0.00088  0.00342  0.00016  0.00000 -0.00173
  2   o           x  -0.02277 -0.01277  0.01782  0.00786  0.04083 -0.03129
                  y  -0.04002 -0.00006  0.02530 -0.00104 -0.01470  0.00665
                  z   0.00675  0.00169  0.00661 -0.00796 -0.03350  0.02526
  3   o           x   0.00812 -0.02263  0.01509 -0.02837  0.02237  0.02387
                  y  -0.02932  0.02896 -0.02691 -0.02588  0.02337  0.02881
                  z   0.00027  0.00163  0.01054 -0.01726  0.01663  0.01772
  4   o           x  -0.01677 -0.04357 -0.02918  0.01539  0.00338  0.01567
                  y  -0.00986  0.00407  0.00251 -0.04040 -0.01477 -0.03109
                  z   0.00234  0.00408  0.01346  0.02994  0.00907  0.02264
  5   h           x   0.10526 -0.00528 -0.17499 -0.02396 -0.13697  0.10934
                  y   0.25099  0.04803 -0.46597  0.00394 -0.00283  0.01304
                  z   0.02602  0.07164 -0.09856  0.09934  0.53837 -0.38072
  6   h           x   0.33184  0.65166  0.24205 -0.04944  0.01603 -0.09435
                  y   0.10950  0.00532  0.04412  0.54768  0.20617  0.40591
                  z  -0.12932 -0.25349 -0.08609 -0.00291 -0.01233  0.02288
  7   h           x  -0.12046  0.12459 -0.34175  0.09266 -0.08151 -0.08362
                  y   0.09700 -0.17568  0.36613  0.17629 -0.14379 -0.17808
                  z  -0.07963  0.01226 -0.13687  0.38141 -0.32106 -0.35124
  8   h           x   0.08297  0.21057  0.46418 -0.18201 -0.06775 -0.15595
                  y  -0.00953  0.04286  0.08173  0.11251  0.03856  0.09037
                  z   0.02621 -0.11539 -0.20916 -0.48213 -0.16834 -0.36153
  9   h           x  -0.19341  0.40501 -0.17412  0.38355 -0.28575 -0.29069
                  y   0.37492 -0.44932  0.19325  0.23564 -0.22584 -0.28091
                  z  -0.11579  0.13243 -0.04843 -0.07621  0.06973  0.09007
 10   h           x   0.31353  0.10090 -0.09169 -0.10236 -0.52195  0.39183
                  y   0.66685 -0.02021 -0.23845  0.01287  0.26223 -0.11537
                  z   0.10301  0.00422 -0.02696  0.00001  0.01747 -0.00008

reduced mass(g/mol)     1.062    1.061    1.055    1.078    1.078    1.085


       mode              25       26       27       28       29       30

     frequency        3535.85  3538.79  3582.66  3722.26  3750.10  3751.72

     symmetry            a        a        a        a        a        a   

        IR               YES      YES      YES      YES      YES      YES
|dDIP/dQ|   (a.u.)     0.0079   0.0079   0.0220   0.0085   0.0105   0.0105
intensity (km/mol)     111.45   110.16   856.91   127.88   196.85   194.60
intensity (  %   )      13.01    12.86   100.00    14.92    22.97    22.71
 
       RAMAN             YES      YES      YES      YES      YES      YES
 
  1   cl          x  -0.00060  0.00014  0.00004  0.00003 -0.00001 -0.00019
                  y  -0.00014 -0.00061  0.00002  0.00002 -0.00019  0.00001
                  z   0.00009  0.00002  0.00016  0.00013  0.00002  0.00003
  2   o           x   0.00207  0.00320  0.00682 -0.02857 -0.01264 -0.04308
                  y   0.00686 -0.00093  0.00136  0.01313  0.00578  0.01984
                  z  -0.05049 -0.00034 -0.03024 -0.01543 -0.00089 -0.01422
  3   o           x  -0.00202  0.00158 -0.00550  0.02680 -0.03453 -0.00826
                  y   0.00481  0.01385 -0.01331  0.01712 -0.02327 -0.00511
                  z   0.02298  0.04094 -0.03056 -0.02375  0.02038  0.00834
  4   o           x   0.00927 -0.01518 -0.01250 -0.00068  0.00022 -0.00141
                  y  -0.00183 -0.00306  0.00547 -0.03304 -0.03519  0.03275
                  z   0.02208 -0.04011 -0.03091 -0.01608 -0.01297  0.00728
  5   h           x  -0.01587 -0.04764 -0.09745  0.46578  0.20783  0.70841
                  y   0.00668  0.02352  0.05132 -0.21231 -0.09658 -0.32117
                  z  -0.03537 -0.01789 -0.05003  0.13187  0.06045  0.19668
  6   h           x  -0.13885  0.23651  0.19767  0.03960  0.01998  0.01007
                  y  -0.02500  0.03714  0.03263 -0.01654 -0.01692  0.01897
                  z  -0.37686  0.65030  0.54232  0.10445  0.04820  0.03205
  7   h           x   0.03518 -0.02679  0.08676 -0.44813  0.56451  0.13852
                  y   0.02245 -0.01482  0.04871 -0.30458  0.38399  0.09764
                  z  -0.00931  0.04512 -0.07326  0.26764 -0.33522 -0.08063
  8   h           x   0.00331 -0.00450 -0.00768 -0.01832 -0.02170  0.01669
                  y   0.04968  0.01396 -0.11539  0.53750  0.57524 -0.53798
                  z   0.03083 -0.01962 -0.05310  0.14842  0.15577 -0.14794
  9   h           x  -0.00331  0.00081  0.00066  0.02005 -0.01913 -0.00512
                  y  -0.09768 -0.18961  0.15342  0.04477 -0.01186 -0.01860
                  z  -0.35237 -0.68768  0.55684  0.10726  0.01304 -0.05028
 10   h           x  -0.00716  0.00178 -0.00383 -0.02105 -0.00595 -0.02464
                  y  -0.10755 -0.00549 -0.06850 -0.00507  0.00917  0.00690
                  z   0.82595  0.02118  0.52734  0.11317 -0.04624  0.02697

reduced mass(g/mol)     1.064    1.064    1.057    1.070    1.064    1.064
 

         **************************************************************
         *                                                            *
         *  zero point VIBRATIONAL energy  :      0.0758760  Hartree  *
         *    SCF-energy                   :   -689.3405767           *
         *    SCF + E(vib0)                :   -689.2647007           *
         *                                                            *
         **************************************************************




 time elapsed for vibrational analysis     0.03 sec


    ------------------------------------------------------------------------
         total  cpu-time :  4 minutes and  2 seconds
         total wall-time :  4 minutes and  4 seconds
    ------------------------------------------------------------------------

   ****  force : all done  ****


    2018-03-04 02:11:58.935 

