
OPTIMIZATION CYCLE 33
Sun Mar  4 00:59:52 PST 2018
 operating system is UNIX !

 rdgrad (c-17-29.gp.local) : TURBOMOLE V7.2 ( 21454 ) 4 Oct 2017 at 12:24:43
 Copyright (C) 2017 TURBOMOLE GmbH, Karlsruhe


    2018-03-04 00:59:52.227 



                                 r d g r a d

                          gradient for ridft program 

                        by K.Eichkorn, O.Treutler, H.Oehm, 
                             M.Haeser and R.Ahlrichs
                  (Chemical Physics Letters 242 (1995) 652-660)
                    parallel version: M.v.Arnim  &  R.Ahlrichs
                            quantum chemistry group
                             university  karlsruhe
                                   germany




                          References             
                                                 
          Density Functional:                              
              O. Treutler and R. Ahlrichs                      
              Efficient Molecular Numerical Integration Schemes
              J. chem. Phys. 102: 346 (1995)                   
          Parallel Version:                                
              Performance of parallel TURBOMOLE for Density    
              Functional Calculations                          
              M. v.Arnim and R. Ahlrichs                      
              J. comp. Chem. 19: 1746 (1998)                   
          RI-J Method:                                     
              Auxiliary Basis Sets to approximate Coulomb      
              Potentials                                       
              Chem. Phys. Lett. 240: 283 (1995)                
              K. Eichkorn, O. Treutler, H. Oehm, M. Haeser     
              and R. Ahlrichs                                  
              Chem. Phys. Lett. 242: 652 (1995)                
                                                           
              Auxiliary Basis Sets for Main Row Atoms and their
              Use to approximate Coulomb Potentials            
              K. Eichkorn, F. Weigend, O. Treutler and         
              R. Ahlrichs                                      
              Theo. Chem. Acc. 97: 119 (1997)                   
                                         



 integral neglect threshold       :  0.18E-10
 integral storage threshold THIZE :  0.10E-04
 integral storage threshold THIME :         5

 PBE0 hybrid functional
 exchange:    3/4 (LDA+PBE) + 1/4 HF
 correlation: LDA (PW) + PBE
 A Hybrid-DFT calculation using the RI-J approximation will be carried out.
  
  
 AUXILIARY BASIS SET information:

 symmetry group of the molecule :   c1 

 the group has the following generators :
   c1(z)

    1 symmetry operations found

 there are 1 real representations :   a   

 maximum number of shells which are related by symmetry :  1


    mo occupation :
   irrep   mo's   occupied
    a      166       24
 
 number of basis functions   :                    166
 number of occupied orbitals :                     24
 

 number of off-diagonal lagrangians expected :  0

 biggest AO integral is expected to be    10.437462037
  
           ------------------
           density functional
           ------------------
 PBE0 hybrid functional
 exchange:    3/4 (LDA+PBE) + 1/4 HF
 correlation: LDA (PW) + PBE

 iterations will be done with small grid
  
 spherical integration : Lebedev's spherical grid
 spherical gridsize    :                     3
    i.e. gridpoints    :                   302
 value for diffuse not defined
 radial integration    : Chebyshev 2nd kind (scaling 3)
 radial gridsize       :                     3
 integration cells     :                    10
 partition function    : becke
 partition sharpness   :                     3
  
  
           ------------------------
             RDGRAD - INFORMATION
           ------------------------
  
 Threshold for integral neglect (rithr1): 1E-10
 Threshold for integral neglect (rithr2): 1E-10
 Contributions to RI integral batches: 
  neglected integral batches:                   218
  direct contribution:                         2267
     
 ****************************************
 Memory allocated for RDGRAD: 2 MiB
 ****************************************
                                            
     

 nuclear repulsion energy  :   171.328085461    

  MOs are in ASCII format !


 reading orbital data $scfmo  from file mos
 orbital characterization : scfconv=7
  Deviation of MOs from orthonormality   1.042584907295918E-010
  W A R N I N G 

    ----------------------------------------
     S+T+V CONTRIBUTIONS TO ENERGY GRADIENT 
    ----------------------------------------

 1e-integral 1st. derivatives will be neglected if expon. factor < 0.359956E-13

  _________________________________
 |                                 |
 |         DFTD3 V3.1 Rev 0        |
 | S.Grimme, University Bonn       |
 |            June  2014           |
 |   see standalone version        |
 |       dftd3 -h for options      |
 |_________________________________|
 
 Please cite DFT-D3 work done with this code as:
 S. Grimme, J. Antony, S. Ehrlich and H. Krieg,
 J. Chem. Phys, 132 (2010), 154104.
 If used with BJ-damping cite also
 S. Grimme, S. Ehrlich and L. Goerigk,
 J. Comput. Chem. 32 (2011), 1456-1465
 For DFT-D2 the reference is
 S. Grimme, J. Comput. Chem., 27 (2006), 1787-1799
 
C6 coefficients used:
                     2  C6 for element                      1
Z=  1 CN= 0.912     C6(AA)=    3.03
Z=  1 CN= 0.000     C6(AA)=    7.59
                     3  C6 for element                      8
Z=  8 CN= 0.000     C6(AA)=   15.51
Z=  8 CN= 0.993     C6(AA)=   12.82
Z=  8 CN= 1.989     C6(AA)=   10.37
                     2  C6 for element                     17
Z= 17 CN= 0.000     C6(AA)=   92.35
Z= 17 CN= 0.997     C6(AA)=   90.40

#           XYZ [au]              R0(AA) [Ang.]  CN          C6(AA)     C8(AA)   C10(AA) [au]
  1   0.35746   0.18073   3.04089   cl  1.552  0.091        92.3      3850.0    196776.6
  2   2.68894   1.15038  -2.40763   o   1.241  1.994        10.4       210.1      5194.0
  3  -0.53509  -3.35509  -1.73352   o   1.241  1.994        10.4       210.1      5194.0
  4  -2.83467   1.73168  -1.80444   o   1.241  1.994        10.4       210.1      5194.0
  5   1.04604   1.86776  -2.77938   h   1.091  0.996         3.1        37.4       553.5
  6  -2.16544   1.71603  -0.08030   h   1.091  1.016         3.1        37.3       552.0
  7   0.83073  -2.38181  -2.46813   h   1.091  0.996         3.1        37.4       553.5
  8  -2.72695  -0.04920  -2.21549   h   1.091  0.996         3.1        37.4       553.5
  9  -0.45196  -2.77228   0.01976   h   1.091  1.016         3.1        37.3       552.0
 10   2.55203   0.93793  -0.57512   h   1.091  1.016         3.1        37.3       552.0

molecular C6(AA) [au] =       875.35

           DFT-D V3
 DF pbe0                                              
 parameters
 s6       :    1.0000
 s8       :    0.9280
 rs6      :    1.2870
 rs18     :    1.0000
 alpha6   :   14.0000
 alpha8   :   16.0000
 k1-k3    :   16.0000    1.3333   -4.0000
 
 Edisp /kcal,au:    -3.1214 -0.00497424

 E6    /kcal :    -0.5276
 E8    /kcal :    -2.5938
 % E8        : 83.10
 
 doing analytical gradient O(N^2) ...
 
 |G|=  3.318264928391159E-003

 setting up bound for integral derivative estimation

 increment for numerical differentiation : 0.00050000

 biggest AO integral is expected to be    10.437462037
 biggest cartesian 1st derivative AO integral is expected to be    27.837505180

 biggest 1-particle AO density matrix element is expected to be    2.1880695579

 setting up bound for integral derivative estimation

 increment for numerical differentiation : 0.00050000

 biggest AO integral is expected to be    10.437462037
 biggest cartesian 1st derivative AO integral is expected to be    27.837505180

 2e-integral 1st. derivatives will be neglected if expon. factor < 0.100000E-06
 outer boundary for 2e-integral derivative neglection is 0.348118E-08

          Overall gridpoints after grid construction =         47369

 Integrated ground state density     :   47.99997054518328    


          ------------------------------------------------
           cartesian gradient of the energy (hartree/bohr)
          ------------------------------------------------

  ATOM      1 cl          2 o           3 o           4 o           5 h 
dE/dx  0.3094441D-05  0.1057221D-04 -0.1137490D-04  0.3188660D-05  0.1575371D-04
dE/dy -0.1213686D-04 -0.8376324D-04 -0.5540198D-04  0.3233962D-04  0.3611897D-04
dE/dz -0.1261258D-04 -0.3882855D-05 -0.2352136D-04  0.7765128D-04 -0.1721806D-04

  ATOM      6 h           7 h           8 h           9 h          10 h 
dE/dx -0.1406183D-04 -0.4329557D-04  0.1521188D-04 -0.6014357D-05 -0.1085361D-04
dE/dy -0.1513906D-04  0.2689482D-04  0.2978776D-05  0.2488642D-04  0.5420667D-04
dE/dz -0.5136539D-04  0.8810643D-05 -0.8560587D-04 -0.1269363D-05 -0.1269393D-05
 
 resulting FORCE  (fx,fy,fz) = (-.378D-04,0.110D-04,-.110D-03)
 resulting MOMENT (mx,my,mz) = (0.723D-04,-.743D-04,-.250D-03)


 exx =      -0.000029 eyy =       0.000102 ezz =       0.000092
 eyz =       0.000036 exz =       0.000072 exy =       0.000045


 **********************************************************************
  |maximum component of gradient| : 0.85605874E-04  (atom  8 h )       
   gradient norm                  : 0.19279626E-03
 **********************************************************************
   ***  cartesian gradients written onto <gradient>  ***


     --- calculation of the energy gradient finished ---



    ------------------------------------------------------------------------
         total  cpu-time :   5.67 seconds
         total wall-time :   5.81 seconds
    ------------------------------------------------------------------------

   ****  rdgrad : all done  ****


    2018-03-04 00:59:58.030 

fine, there is no data group "$actual step"
next step = relax

 statpt (c-17-29.gp.local) : TURBOMOLE V7.2 ( 21454 ) 2 Oct 2017 at 16:43:05
 Copyright (C) 2017 TURBOMOLE GmbH, Karlsruhe


    2018-03-04 00:59:58.068 



                           this is S T A T P T   


                     hessian and coordinate update for
                          stationary point search 

                     by barbara unterreiner, marek sierka,
                           and reinhart ahlrichs

                          quantum chemistry group
                          universitaet  karlsruhe
                                  germany




              +--------------------------------------------------+
              | Atomic coordinate, charge and isotop information |
              +--------------------------------------------------+

                    atomic coordinates            atom    charge  isotop
          0.35745840    0.18073001    3.04089228    cl    17.000     0
          2.68894239    1.15038155   -2.40763005    o      8.000     0
         -0.53509305   -3.35509148   -1.73352272    o      8.000     0
         -2.83467315    1.73168092   -1.80443810    o      8.000     0
          1.04603614    1.86776356   -2.77937667    h      1.000     0
         -2.16544118    1.71603301   -0.08030112    h      1.000     0
          0.83073487   -2.38180945   -2.46812530    h      1.000     0
         -2.72695338   -0.04919808   -2.21549334    h      1.000     0
         -0.45195598   -2.77227563    0.01976051    h      1.000     0
          2.55203180    0.93792505   -0.57511977    h      1.000     0
 
       center of nuclear mass  :    0.00957949   -0.02064551    0.05049961
       center of nuclear charge:   -0.00607118   -0.02964645   -0.08443009
  Keyword $statpt not found - using default options
 
        ***************  Stationary point options ******************
        ************************************************************
           Maximum allowed trust radius:           3.000000E-01
           Minimum allowed trust radius:           1.000000E-03
           Initial trust radius:                   1.500000E-01
           GDIIS used if gradient norm <           1.000000E-02
           Number of previous steps for GDIIS:       5
           Hessian update method:                  BFGS
                        *** Convergence criteria ***                
           Threshold for energy change:            1.000000E-06
           Threshold for max displacement element: 1.000000E-03
           Threshold for max gradient element :    1.000000E-03
           Threshold for RMS of displacement:      5.000000E-04
           Threshold for RMS of gradient:          5.000000E-04
        ************************************************************
 

 keyword $statp missing in file <control>

  Keyword $statpt not found - using default options
     Number of symmetry restricted degrees of freedom:    30
     Constituted by:     3 translational degrees of freedom
                         3 rotational degrees of freedom
                      24 internal degrees of freedom

  *************************************************************************
   ATOM                      CARTESIAN COORDINATES
    1 cl      0.35745839741198      0.18073001350496      3.04089227526056
    2 o       2.68894238800057      1.15038154987388     -2.40763004771829
    3 o      -0.53509305213449     -3.35509147951540     -1.73352272331375
    4 o      -2.83467314824550      1.73168092097914     -1.80443810475035
    5 h       1.04603613556010      1.86776355563656     -2.77937666709760
    6 h      -2.16544117636059      1.71603301449622     -0.08030111502571
    7 h       0.83073487452277     -2.38180945043623     -2.46812530258208
    8 h      -2.72695338411139     -0.04919807807576     -2.21549333554147
    9 h      -0.45195598024996     -2.77227563163292      0.01976051294315
   10 h       2.55203180014638      0.93792504916287     -0.57511976647280
  *************************************************************************
   ATOM                      CARTESIAN GRADIENTS  
    1 cl      0.00000309444063     -0.00001213685652     -0.00001261257842
    2 o       0.00001057221218     -0.00008376324435     -0.00000388285452
    3 o      -0.00001137490460     -0.00005540198294     -0.00002352136151
    4 o       0.00000318865986      0.00003233962148      0.00007765128462
    5 h       0.00001575371299      0.00003611896942     -0.00001721805638
    6 h      -0.00001406182631     -0.00001513906123     -0.00005136539231
    7 h      -0.00004329557414      0.00002689481714      0.00000881064280
    8 h       0.00001521188079      0.00000297877625     -0.00008560587417
    9 h      -0.00000601435730      0.00002488642270     -0.00000126936342
   10 h      -0.00001085360938      0.00005420667360     -0.00000126939333
  *************************************************************************

  norm of actual CARTESIAN gradient:  1.92796E-04
  norm of actual INTERNAL  gradient:  1.02313E-04

  ENERGY =    -689.3405765983 a.u.; # of cycle =   33

  Approximate Hessian read from $hessapprox data section

  Hessian updated according to BFGS formula
  Number of zero Hessian eigenvalues:   0
  Number of structures for GDIIS interpolation:    4
  GDIIS step:     0.001188

  Transforming internal coordinate displacements to Cartesian space
      Iteration   1 residual norm     1.187706E-03
      Iteration   2 residual norm     1.419286E-07
      Iteration   3 residual norm     3.992367E-15
      Transformation converged
      Residual norm:    3.992367E-15 after    3 iterations

      ****************************************************************** 
                          CONVERGENCE INFORMATION

                               Converged?     Value      Criterion
             Energy change         yes      0.0000004   0.0000010
             RMS of displacement   yes      0.0002424   0.0005000
             RMS of gradient       yes      0.0000209   0.0005000
             MAX displacement      yes      0.0008277   0.0010000
             MAX gradient          yes      0.0000513   0.0010000
      ****************************************************************** 


    ------------------------------------------------------------------------
         total  cpu-time :   0.06 seconds
         total wall-time :   0.09 seconds
    ------------------------------------------------------------------------

   ****  statpt : all done  ****


    2018-03-04 00:59:58.143 

fine, there is no data group "$actual step"
next step = ridft
 operating system is UNIX !

 ridft (c-17-29.gp.local) : TURBOMOLE V7.2 ( 21454 ) 4 Oct 2017 at 12:48:15
 Copyright (C) 2017 TURBOMOLE GmbH, Karlsruhe


    2018-03-04 00:59:58.175 



                                  r i d f t

                        DFT program with RI approximation 
                                for coulomb part 




                                                 
                                 References:     
                                                 
          TURBOMOLE:                             
              R. Ahlrichs, M. Baer, M. Haeser, H. Horn, and
              C. Koelmel
              Electronic structure calculations on workstation
              computers: the program system TURBOMOLE
              Chem. Phys. Lett. 162: 165 (1989)
          Density Functional:                              
              O. Treutler and R. Ahlrichs                      
              Efficient Molecular Numerical Integration Schemes
              J. Chem. Phys. 102: 346 (1995)                   
          Parallel Version:                                
              Performance of parallel TURBOMOLE for Density    
              Functional Calculations                          
              M. v. Arnim and R. Ahlrichs                      
              J. Comp. Chem. 19: 1746 (1998)                   
          RI-J Method:                                     
              Auxiliary Basis Sets to approximate Coulomb      
              Potentials                                       
              Chem. Phys. Lett. 240: 283 (1995)                
              K. Eichkorn, O. Treutler, H. Oehm, M. Haeser     
              and R. Ahlrichs                                  
              Chem. Phys. Lett. 242: 652 (1995)                
                                                           
              Auxiliary Basis Sets for Main Row Atoms and their
              Use to approximate Coulomb Potentials            
              K. Eichkorn, F. Weigend, O. Treutler and         
              R. Ahlrichs                                      
              Theo. Chem. Acc. 97: 119 (1997)                   
                                                           
              Accurate Coulomb-fitting basis sets for H to Rn 
              F. Weigend                                        
              Phys. Chem. Chem. Phys. 8: 1057 (2006)            
                                                           
          Multipole accelerated RI-J (MARI-J):             
              Fast evaluation of the Coulomb potential for     
              electron densities using multipole accelerated   
              resolution of identity approximation             
              M. Sierka, A. Hogekamp and R. Ahlrichs           
              J. Chem. Phys. 118: 9136 (2003)                  
          RI-JK Method:                                     
              A fully direct RI-HF algorithm: Implementation,
              optimised auxiliary basis sets, demonstration of
              accuracy and efficiency                         
              F. Weigend                                      
              Phys. Chem. Chem. Phys. 4: 4285 (2002)           
          Two-component HF and DFT with spin-orbit coupling:  
              Self-consistent treatment of spin-orbit         
              interactions with efficient Hartree-Fock and    
              density functional methods                      
              M. K. Armbruster, F. Weigend, C. van Wüllen and 
              W. Klopper                                      
              Phys. Chem. Chem. Phys. 10: 1748 (2008)         
          Relativistic all-electron 2c calculations           
              An efficient implementation of two-component    
              relativistic exact-decoupling methods for large 
              molecules                                       
              D. Peng, N. Middendorf, F. Weigend, M. Reiher   
              J. Chem. Phys. 138, 184105 (2013)               
                                         




              +--------------------------------------------------+
              |      general information about current run       |
              +--------------------------------------------------+

 
 PBE0 hybrid functional
 exchange:    3/4 (LDA+PBE) + 1/4 HF
 correlation: LDA (PW) + PBE
 A Hybrid-DFT calculation using the RI-J approximation will be carried out.
 Allocatable memory for RI due to $ricore (MB):                  3000


              +--------------------------------------------------+
              | Atomic coordinate, charge and isotop information |
              +--------------------------------------------------+

                    atomic coordinates            atom    charge  isotop
          0.35729007    0.18056993    3.04091202    cl    17.000     0
          2.68894815    1.15039794   -2.40772409    o      8.000     0
         -0.53518703   -3.35479122   -1.73353636    o      8.000     0
         -2.83466124    1.73155014   -1.80448932    o      8.000     0
          1.04600532    1.86775587   -2.77934490    h      1.000     0
         -2.16541775    1.71612925   -0.08033015    h      1.000     0
          0.83083827   -2.38179513   -2.46812979    h      1.000     0
         -2.72685811   -0.04938891   -2.21529595    h      1.000     0
         -0.45203649   -2.77218282    0.01981446    h      1.000     0
          2.55216568    0.93789442   -0.57523020    h      1.000     0
 
       center of nuclear mass  :    0.00950193   -0.02067598    0.05048059
       center of nuclear charge:   -0.00613985   -0.02967327   -0.08444703

              +--------------------------------------------------+
              |               basis set information              |
              +--------------------------------------------------+

              we will work with the 1s 3p 5d 7f 9g ... basis set
              ...i.e. with spherical basis functions...

   type   atoms  prim   cont   basis
   ---------------------------------------------------------------------------
    cl       1     63     37   def2-TZVP   [5s5p2d1f|14s9p3d1f]
    o        3     46     31   def2-TZVP   [5s3p2d1f|11s6p2d1f]
    h        6      8      6   def2-TZVP   [3s1p|5s1p]
   ---------------------------------------------------------------------------
   total:   10    249    166
   ---------------------------------------------------------------------------

   total number of primitive shells          :   53
   total number of contracted shells         :   70
   total number of cartesian basis functions :  186
   total number of SCF-basis functions       :  166


 integral neglect threshold       :  0.18E-10
 integral storage threshold THIZE :  0.10E-04
 integral storage threshold THIME :         5

 RI-J AUXILIARY BASIS SET information:

              we will work with the 1s 3p 5d 7f 9g ... basis set
              ...i.e. with spherical basis functions...

   type   atoms  prim   cont   basis
   ---------------------------------------------------------------------------
    cl       1     77     51   def2-TZVP   [8s4p3d1f1g|14s5p5d2f1g]
    o        3     70     49   def2-TZVP   [6s4p3d1f1g|12s5p4d2f1g]
    h        6     16     11   def2-TZVP   [3s1p1d|5s2p1d]
   ---------------------------------------------------------------------------
   total:   10    383    264
   ---------------------------------------------------------------------------

   total number of primitive shells          :   59
   total number of contracted shells         :   92
   total number of cartesian basis functions :  318
   total number of SCF-basis functions       :  264


 symmetry group of the molecule :   c1 

 the group has the following generators :
   c1(z)

    1 symmetry operations found

 there are 1 real representations :   a   

 maximum number of shells which are related by symmetry :  1


    mo occupation :
   irrep   mo's   occupied
    a      166       24
 
 number of basis functions   :                    166
 number of occupied orbitals :                     24
 
  
           ------------------
           density functional
           ------------------
 PBE0 hybrid functional
 exchange:    3/4 (LDA+PBE) + 1/4 HF
 correlation: LDA (PW) + PBE

 iterations will be done with small grid
  
 spherical integration : Lebedev's spherical grid
 spherical gridsize    :                     3
    i.e. gridpoints    :                   302
 value for diffuse not defined
 radial integration    : Chebyshev 2nd kind (scaling 3)
 radial gridsize       :                     3
 integration cells     :                    10
 partition function    : becke
 partition sharpness   :                     3
  

 biggest AO integral is expected to be    10.437462037
  
           ------------------------
               RI-J - INFORMATION
           ------------------------
 Contributions to RI integral batches: 
  neglected integral batches:                   218
  direct contribution:                            0
  memory contribution:                  2267
 Memory core needed for (P|Q) and Cholesky      1 MByte
 Memory core minimum needed except of (P|Q)     1 MByte
 Total minimum memory core needed (sum)         1 MByte
  
 ****************************************
 Memory allocated for RI-J    40 MByte
 ****************************************
                                            

          ------------------------
          nuclear repulsion energy  :   171.330258634    
          ------------------------

  _________________________________
 |                                 |
 |         DFTD3 V3.1 Rev 0        |
 | S.Grimme, University Bonn       |
 |            June  2014           |
 |   see standalone version        |
 |       dftd3 -h for options      |
 |_________________________________|
 
 Please cite DFT-D3 work done with this code as:
 S. Grimme, J. Antony, S. Ehrlich and H. Krieg,
 J. Chem. Phys, 132 (2010), 154104.
 If used with BJ-damping cite also
 S. Grimme, S. Ehrlich and L. Goerigk,
 J. Comput. Chem. 32 (2011), 1456-1465
 For DFT-D2 the reference is
 S. Grimme, J. Comput. Chem., 27 (2006), 1787-1799
 
C6 coefficients used:
                     2  C6 for element                      1
Z=  1 CN= 0.912     C6(AA)=    3.03
Z=  1 CN= 0.000     C6(AA)=    7.59
                     3  C6 for element                      8
Z=  8 CN= 0.000     C6(AA)=   15.51
Z=  8 CN= 0.993     C6(AA)=   12.82
Z=  8 CN= 1.989     C6(AA)=   10.37
                     2  C6 for element                     17
Z= 17 CN= 0.000     C6(AA)=   92.35
Z= 17 CN= 0.997     C6(AA)=   90.40

#           XYZ [au]              R0(AA) [Ang.]  CN          C6(AA)     C8(AA)   C10(AA) [au]
  1   0.35729   0.18057   3.04091   cl  1.552  0.091        92.3      3850.0    196776.6
  2   2.68895   1.15040  -2.40772   o   1.241  1.994        10.4       210.1      5194.0
  3  -0.53519  -3.35479  -1.73354   o   1.241  1.994        10.4       210.1      5194.0
  4  -2.83466   1.73155  -1.80449   o   1.241  1.994        10.4       210.1      5194.0
  5   1.04601   1.86776  -2.77934   h   1.091  0.996         3.1        37.4       553.5
  6  -2.16542   1.71613  -0.08033   h   1.091  1.016         3.1        37.3       552.0
  7   0.83084  -2.38180  -2.46813   h   1.091  0.996         3.1        37.4       553.5
  8  -2.72686  -0.04939  -2.21530   h   1.091  0.996         3.1        37.4       553.5
  9  -0.45204  -2.77218   0.01981   h   1.091  1.016         3.1        37.3       552.0
 10   2.55217   0.93789  -0.57523   h   1.091  1.016         3.1        37.3       552.0

molecular C6(AA) [au] =       875.35

           DFT-D V3
 DF pbe0                                              
 parameters
 s6       :    1.0000
 s8       :    0.9280
 rs6      :    1.2870
 rs18     :    1.0000
 alpha6   :   14.0000
 alpha8   :   16.0000
 k1-k3    :   16.0000    1.3333   -4.0000
 
 Edisp /kcal,au:    -3.1214 -0.00497423

 E6    /kcal :    -0.5275
 E8    /kcal :    -2.5938
 % E8        : 83.10
 nuclear repulsion energy                  =     171.330258634
 empirical dispersive energy correction    =      -0.004974228
 nuclear repulsion + dispersion correction =     171.325284406


         -----------------
         -S,T+V- integrals
         -----------------

 1e-integrals will be neglected if expon. factor < 0.179675E-11
 
   Difference densities algorithm switched on.
   The maximal number of linear combinations of
   difference densities is                    20 .

 DIIS switched on: error vector is FDS-SDF
 Max. Iterations for DIIS is     :   4
 DIIS matrix (see manual) 
    Scaling factor of diagonals  :  1.200
    threshold for scaling factor :  0.000

 scf convergence criterion : increment of total energy < .1000000D-06
                  and increment of one-electron energy < .1000000D-03

  MOs are in ASCII format !


 automatic virtual orbital shift switched on 
      shift if e(lumo)-e(homo) < 0.10000000    


 reading orbital data $scfmo  from file mos
 orbital characterization : scfconv=7

 DSCF restart information will be dumped onto file mos


 Starting SCF iterations

          Overall gridpoints after grid construction =         12583

 ITERATION  ENERGY          1e-ENERGY        2e-ENERGY     NORM[dD(SAO)]  TOL
   1  -689.34068171519    -1301.7629524     441.09698632    0.000D+00 0.179D-10
                            Exc = -42.4867541604     Coul =  497.224367781    
                            exK = -13.6406273044    
                              N = 48.000932381    
                            current damping = 0.700
 
          max. resid. norm for Fia-block=  4.584D-05 for orbital     20a         
          max. resid. fock norm         =  3.244D-04 for orbital    137a         

 ITERATION  ENERGY          1e-ENERGY        2e-ENERGY     NORM[dD(SAO)]  TOL
   2  -689.34068172953    -1301.7629281     441.09696199    0.140D-03 0.114D-10
                            Exc = -42.4867519327      Eck =  483.583713925    
                              N = 48.000932422    
                            current damping = 0.700
 
          Norm of current diis error: 0.18523E-03
          max. resid. norm for Fia-block=  2.153D-05 for orbital     20a         
          max. resid. fock norm         =  1.368D-04 for orbital    137a         

 ENERGY CONVERGED !

          Overall gridpoints after grid construction =         47369

 ITERATION  ENERGY          1e-ENERGY        2e-ENERGY     NORM[dD(SAO)]  TOL
   3  -689.34057669629    -1301.7629197     441.09705860    0.573D-04 0.910D-11
                            Exc = -42.4866463859      Eck =  483.583704982    
                              N = 47.999970803    
                            current damping = 0.750
 
          Norm of current diis error: 0.88426E-04
          max. resid. norm for Fia-block=  9.297D-06 for orbital     20a         
          max. resid. fock norm         =  5.475D-05 for orbital    137a         

 End of SCF iterations

   convergence criteria satisfied after     3 iterations


                  ------------------------------------------ 
                 |  total energy      =   -689.34057669629  |
                  ------------------------------------------ 
                 :  kinetic energy    =    687.91227439198  :
                 :  potential energy  =  -1377.25285108826  :
                 :  virial theorem    =      1.99792801649  :
                 :  wavefunction norm =      1.00000000000  :
                  .......................................... 


 orbitals $scfmo  will be written to file mos

    irrep                 20a         21a         22a         23a         24a   
 eigenvalues H         -0.16595    -0.16586    -0.10438    -0.10345    -0.10342
            eV          -4.5159     -4.5134     -2.8403     -2.8149     -2.8142
 occupation              2.0000      2.0000      2.0000      2.0000      2.0000 

    irrep                 25a         26a         27a         28a         29a   
 eigenvalues H          0.19733     0.26343     0.26388     0.29223     0.32780
            eV           5.3698      7.1685      7.1805      7.9520      8.9199
 
 
 
 
 ==============================================================================
                           electrostatic moments
 ==============================================================================

 reference point for electrostatic moments:    0.00000   0.00000   0.00000

 
              nuc           elec       ->  total
 ------------------------------------------------------------------------------
                          charge      
 ------------------------------------------------------------------------------
          47.000000     -48.000000      -1.000000
 
 ------------------------------------------------------------------------------
                       dipole moment  
 ------------------------------------------------------------------------------
   x      -0.288573       0.219822      -0.068751
   y      -1.394644       1.382164      -0.012479
   z      -3.969010       3.384697      -0.584313
 
   | dipole moment | =     0.5885 a.u. =     1.4958 debye 
 
 ------------------------------------------------------------------------------
                     quadrupole moment
 ------------------------------------------------------------------------------
  xx     147.214624    -180.114179     -32.899555
  yy     145.838379    -178.674829     -32.836449
  zz     272.730898    -309.482302     -36.751405
  xy       0.980440      -0.991971      -0.011532
  xz      14.799266     -15.264164      -0.464898
  yz       8.769199      -9.039264      -0.270065
 
     1/3  trace=     -34.162470
     anisotropy=       3.993920
 
 ==============================================================================
 


    ------------------------------------------------------------------------
         total  cpu-time :   5.91 seconds
         total wall-time :   6.20 seconds
    ------------------------------------------------------------------------

   ****  ridft : all done  ****


    2018-03-04 01:00:04.359 

fine, there is no data group "$actual step"
next step = rdgrad
 energy change  : actual value =  -0.3738E-06 threshold =   0.1000E-05
 geom. gradient : actual value =   0.5131E-04 threshold =   0.1000E-02

CONVERGENCY CRITERIA FULFILLED IN CYCLE 33

