[Molden Format]
[Title]
                                                                                
[Atoms] AU
 cl    1   17 0.35729006914324E+00 0.18056993345143E+00 0.30409120238527E+01
 o     2    8 0.26889481470775E+01 0.11503979359545E+01 -.24077240862328E+01
 o     3    8 -.53518703390124E+00 -.33547912178031E+01 -.17335363589271E+01
 o     4    8 -.28346612415554E+01 0.17315501449213E+01 -.18044893241821E+01
 h     5    1 0.10460053197642E+01 0.18677558685028E+01 -.27793449013709E+01
 h     6    1 -.21654177489031E+01 0.17161292489580E+01 -.80330153869040E-01
 h     7    1 0.83083826655555E+00 -.23817951342628E+01 -.24681297873841E+01
 h     8    1 -.27268581063396E+01 -.49388909839470E-01 -.22152959536237E+01
 h     9    1 -.45203649430823E+00 -.27721828231255E+01 0.19814464000350E-01
 h    10    1 0.25521656770070E+01 0.93789441723615E+00 -.57523019656170E+00
[GTO]
    1 0
 s    7 1.00
 0.69507990945000E+05 0.51457389646325E-03
 0.10426156880000E+05 0.39781344806745E-02
 0.23732334061000E+04 0.20456178670619E-01
 0.67156420071000E+03 0.80148102887582E-01
 0.21841999790000E+03 0.23454770317658E+00
 0.77572249714000E+02 0.44543368582255E+00
 0.28888815277000E+02 0.35466842499038E+00
 s    3 1.00
 0.12710527185000E+03 0.11293688054705E+00
 0.39339582961000E+02 0.48373514210060E+00
 0.76740679989000E+01 -.12292297389810E+01
 s    2 1.00
 0.38745627630000E+01 0.67296821635762E+00
 0.18385832573000E+01 0.34956051409054E+00
 s    1 1.00
 0.50229057542000E+00 0.10000000000000E+01
 s    1 1.00
 0.17962723420000E+00 0.10000000000000E+01
 p    5 1.00
 0.66650423284000E+03 0.33502508198275E-02
 0.15764241690000E+03 0.26763970407523E-01
 0.50262520978000E+02 0.12362682360800E+00
 0.18536078105000E+02 0.35845787918981E+00
 0.72940532777000E+01 0.61677296353714E+00
 p    1 1.00
 0.29433248995000E+01 0.10000000000000E+01
 p    1 1.00
 0.10404970818000E+01 0.10000000000000E+01
 p    1 1.00
 0.38456415080000E+00 0.10000000000000E+01
 p    1 1.00
 0.13069642732000E+00 0.10000000000000E+01
 d    2 1.00
 0.46100000000000E+01 0.18265835045336E+00
 0.10110000000000E+01 0.91329175226681E+00
 d    1 1.00
 0.33900000000000E+00 0.10000000000000E+01
 f    1 1.00
 0.70600000000000E+00 0.10000000000000E+01
 
    2 0
 s    6 1.00
 0.27032382631000E+05 0.57227335211155E-03
 0.40523871392000E+04 0.44353233492995E-02
 0.92232722710000E+03 0.23020107706038E-01
 0.26124070989000E+03 0.92822490667928E-01
 0.85354641351000E+02 0.29378500009671E+00
 0.31035035245000E+02 0.67401604501641E+00
 s    2 1.00
 0.12260860728000E+02 0.63839937025506E+00
 0.49987076005000E+01 0.39534587125718E+00
 s    1 1.00
 0.11703108158000E+01 0.10000000000000E+01
 s    1 1.00
 0.46474740994000E+00 0.10000000000000E+01
 s    1 1.00
 0.18504536357000E+00 0.10000000000000E+01
 p    4 1.00
 0.63274954801000E+02 0.12018332222616E-01
 0.14627049379000E+02 0.83005421790056E-01
 0.44501223456000E+01 0.31991743925964E+00
 0.15275799647000E+01 0.70715542916104E+00
 p    1 1.00
 0.52935117943000E+00 0.10000000000000E+01
 p    1 1.00
 0.17478421270000E+00 0.10000000000000E+01
 d    1 1.00
 0.23140000000000E+01 0.10000000000000E+01
 d    1 1.00
 0.64500000000000E+00 0.10000000000000E+01
 f    1 1.00
 0.14280000000000E+01 0.10000000000000E+01
 
    3 0
 s    6 1.00
 0.27032382631000E+05 0.57227335211155E-03
 0.40523871392000E+04 0.44353233492995E-02
 0.92232722710000E+03 0.23020107706038E-01
 0.26124070989000E+03 0.92822490667928E-01
 0.85354641351000E+02 0.29378500009671E+00
 0.31035035245000E+02 0.67401604501641E+00
 s    2 1.00
 0.12260860728000E+02 0.63839937025506E+00
 0.49987076005000E+01 0.39534587125718E+00
 s    1 1.00
 0.11703108158000E+01 0.10000000000000E+01
 s    1 1.00
 0.46474740994000E+00 0.10000000000000E+01
 s    1 1.00
 0.18504536357000E+00 0.10000000000000E+01
 p    4 1.00
 0.63274954801000E+02 0.12018332222616E-01
 0.14627049379000E+02 0.83005421790056E-01
 0.44501223456000E+01 0.31991743925964E+00
 0.15275799647000E+01 0.70715542916104E+00
 p    1 1.00
 0.52935117943000E+00 0.10000000000000E+01
 p    1 1.00
 0.17478421270000E+00 0.10000000000000E+01
 d    1 1.00
 0.23140000000000E+01 0.10000000000000E+01
 d    1 1.00
 0.64500000000000E+00 0.10000000000000E+01
 f    1 1.00
 0.14280000000000E+01 0.10000000000000E+01
 
    4 0
 s    6 1.00
 0.27032382631000E+05 0.57227335211155E-03
 0.40523871392000E+04 0.44353233492995E-02
 0.92232722710000E+03 0.23020107706038E-01
 0.26124070989000E+03 0.92822490667928E-01
 0.85354641351000E+02 0.29378500009671E+00
 0.31035035245000E+02 0.67401604501641E+00
 s    2 1.00
 0.12260860728000E+02 0.63839937025506E+00
 0.49987076005000E+01 0.39534587125718E+00
 s    1 1.00
 0.11703108158000E+01 0.10000000000000E+01
 s    1 1.00
 0.46474740994000E+00 0.10000000000000E+01
 s    1 1.00
 0.18504536357000E+00 0.10000000000000E+01
 p    4 1.00
 0.63274954801000E+02 0.12018332222616E-01
 0.14627049379000E+02 0.83005421790056E-01
 0.44501223456000E+01 0.31991743925964E+00
 0.15275799647000E+01 0.70715542916104E+00
 p    1 1.00
 0.52935117943000E+00 0.10000000000000E+01
 p    1 1.00
 0.17478421270000E+00 0.10000000000000E+01
 d    1 1.00
 0.23140000000000E+01 0.10000000000000E+01
 d    1 1.00
 0.64500000000000E+00 0.10000000000000E+01
 f    1 1.00
 0.14280000000000E+01 0.10000000000000E+01
 
    5 0
 s    3 1.00
 0.34061341000000E+02 0.25439307208879E-01
 0.51235746000000E+01 0.19008594890375E+00
 0.11646626000000E+01 0.85244113011042E+00
 s    1 1.00
 0.32723041000000E+00 0.10000000000000E+01
 s    1 1.00
 0.10307241000000E+00 0.10000000000000E+01
 p    1 1.00
 0.80000000000000E+00 0.10000000000000E+01
 
    6 0
 s    3 1.00
 0.34061341000000E+02 0.25439307208879E-01
 0.51235746000000E+01 0.19008594890375E+00
 0.11646626000000E+01 0.85244113011042E+00
 s    1 1.00
 0.32723041000000E+00 0.10000000000000E+01
 s    1 1.00
 0.10307241000000E+00 0.10000000000000E+01
 p    1 1.00
 0.80000000000000E+00 0.10000000000000E+01
 
    7 0
 s    3 1.00
 0.34061341000000E+02 0.25439307208879E-01
 0.51235746000000E+01 0.19008594890375E+00
 0.11646626000000E+01 0.85244113011042E+00
 s    1 1.00
 0.32723041000000E+00 0.10000000000000E+01
 s    1 1.00
 0.10307241000000E+00 0.10000000000000E+01
 p    1 1.00
 0.80000000000000E+00 0.10000000000000E+01
 
    8 0
 s    3 1.00
 0.34061341000000E+02 0.25439307208879E-01
 0.51235746000000E+01 0.19008594890375E+00
 0.11646626000000E+01 0.85244113011042E+00
 s    1 1.00
 0.32723041000000E+00 0.10000000000000E+01
 s    1 1.00
 0.10307241000000E+00 0.10000000000000E+01
 p    1 1.00
 0.80000000000000E+00 0.10000000000000E+01
 
    9 0
 s    3 1.00
 0.34061341000000E+02 0.25439307208879E-01
 0.51235746000000E+01 0.19008594890375E+00
 0.11646626000000E+01 0.85244113011042E+00
 s    1 1.00
 0.32723041000000E+00 0.10000000000000E+01
 s    1 1.00
 0.10307241000000E+00 0.10000000000000E+01
 p    1 1.00
 0.80000000000000E+00 0.10000000000000E+01
 
   10 0
 s    3 1.00
 0.34061341000000E+02 0.25439307208879E-01
 0.51235746000000E+01 0.19008594890375E+00
 0.11646626000000E+01 0.85244113011042E+00
 s    1 1.00
 0.32723041000000E+00 0.10000000000000E+01
 s    1 1.00
 0.10307241000000E+00 0.10000000000000E+01
 p    1 1.00
 0.80000000000000E+00 0.10000000000000E+01
 
[MO]
 Sym=     1a   
 Ene= -.10144045780865E+03
 Spin= Alpha
 Occup= 2.000000
     1 0.10001911114180E+01
     2 -.32181793829677E-01
     3 -.10225040907838E-01
     4 0.34473430148086E-02
     5 -.20647799842303E-02
     6 -.10094713533498E-05
     7 -.62278993589818E-06
     8 -.94056692670869E-05
     9 -.30616458659591E-05
    10 -.17045782345239E-05
    11 -.25619504202189E-04
    12 0.11866827054648E-04
    13 0.67010458372546E-05
    14 0.10108047412927E-03
    15 -.30303893301099E-04
    16 -.17059341023315E-04
    17 -.25898969791973E-03
    18 0.68267029313954E-04
    19 0.38001201636319E-04
    20 0.58393970758646E-03
    21 -.98546026095250E-05
    22 -.10277338111947E-04
    23 0.20131940721472E-04
    24 0.26178081919081E-06
    25 0.41223953678888E-05
    26 0.22333504068316E-05
    27 0.24058033918443E-04
    28 0.25106696164585E-04
    29 -.49164730083028E-04
    30 -.62656621048476E-06
    31 -.10073827207080E-04
    32 -.54299922384183E-05
    33 -.83950751239701E-06
    34 0.21508756886924E-05
    35 -.14669389720202E-05
    36 0.16475000070148E-05
    37 -.25934883152647E-05
    38 0.13358629832147E-05
    39 -.52118248780993E-06
    40 -.29221423537604E-06
    41 0.63224217295376E-06
    42 0.18745450710310E-06
    43 -.36274393997330E-06
    44 0.13776373781527E-05
    45 -.17946065998564E-04
    46 0.10601130738665E-03
    47 -.42080124387151E-03
    48 -.20664254110192E-04
    49 -.79721466862524E-05
    50 0.12163741061304E-04
    51 0.54761441171600E-04
    52 0.41293535839544E-04
    53 -.64479674868077E-04
    54 -.14874352332756E-03
    55 0.16429757715298E-04
    56 -.29108097296491E-03
    57 -.75125990052202E-05
    58 -.41199550732178E-05
    59 0.11632554078438E-04
    60 0.68932737318638E-06
    61 -.39673444262589E-05
    62 -.13786757550981E-05
    63 0.34122084146515E-04
    64 0.14309536574562E-04
    65 -.48431620721076E-04
    66 -.88587606738279E-05
    67 0.24003551414442E-04
    68 0.62907160938942E-05
    69 -.27378981459317E-05
    70 -.11270584139509E-05
    71 0.30296279987708E-06
    72 -.12819217074998E-06
    73 0.70140969397329E-06
    74 -.89914403056483E-06
    75 0.38014679926143E-05
    76 0.81069784295106E-06
    77 0.49267678145755E-06
    78 0.14742251963552E-07
    79 -.34454703674467E-06
    80 0.13128477764022E-05
    81 -.17431626628830E-04
    82 0.10417139556446E-03
    83 -.41619757382472E-03
    84 0.43384414965310E-05
    85 0.23760694710139E-04
    86 0.72198272783991E-05
    87 0.24936657772512E-05
    88 -.79111392942168E-04
    89 -.50972924855519E-04
    90 0.54010108096998E-04
    91 0.61390160149349E-04
    92 -.31621611760075E-03
    93 -.50456394238803E-05
    94 -.40520590454560E-05
    95 0.90976984693363E-05
    96 -.10163034969566E-05
    97 0.31293616130409E-05
    98 0.79524567880947E-05
    99 0.23271083345333E-04
   100 0.11742057311761E-04
   101 -.35013140657095E-04
   102 0.85907048841050E-05
   103 -.17468294595148E-04
   104 -.39257589614709E-04
   105 -.11403249386247E-07
   106 0.76770694819398E-06
   107 0.19677486948548E-05
   108 0.55789493963326E-06
   109 0.15311994617043E-05
   110 -.38479925658734E-06
   111 -.54259587515804E-06
   112 -.25611864154807E-05
   113 -.22552126500118E-05
   114 -.17667458530092E-05
   115 -.39005036938432E-06
   116 0.14732733375276E-05
   117 -.18549592061650E-04
   118 0.10774263742969E-03
   119 -.42391140956264E-03
   120 0.19398179878503E-04
   121 -.14013736086686E-04
   122 0.79028677563878E-05
   123 -.75636663991617E-04
   124 0.27243077910024E-04
   125 -.48366147859187E-04
   126 -.10453138595704E-04
   127 -.13723681417465E-03
   128 -.29841806303003E-03
   129 -.23384768563049E-05
   130 -.72290865712022E-05
   131 0.95675634275070E-05
   132 0.66233702666998E-06
   133 0.70429755206583E-05
   134 -.30417646793054E-05
   135 0.25775633271567E-05
   136 0.35921469761829E-04
   137 -.38499033088985E-04
   138 -.11641125678546E-05
   139 -.31480941395177E-04
   140 0.18685397310209E-04
   141 0.54503483529011E-06
   142 -.22932798773059E-05
   143 0.15426048890358E-05
   144 0.12945362210731E-05
   145 0.59540272815568E-06
   146 -.11763839215050E-05
   147 -.20257771861615E-05
   148 0.24813550900973E-05
   149 -.89323771507943E-06
   150 0.13371188376867E-05
   151 -.17423965795919E-05
   152 -.10153943686994E-03
   153 -.18595236257607E-03
   154 -.26937319333477E-04
   155 0.23409899056124E-04
   156 0.11208054585006E-05
   157 -.28017546305934E-04
   158 0.32183886266002E-03
   159 0.59225355838209E-03
   160 0.27476069759881E-04
   161 -.47317160022846E-04
   162 -.36256948461289E-04
   163 -.16565082506623E-05
   164 -.10353539113951E-03
   165 -.18596890675105E-03
   166 0.33546639310811E-04
   167 0.11767516898050E-04
   168 -.49962016348024E-05
   169 -.17349872307826E-05
   170 -.10165799751170E-03
   171 -.18730935645431E-03
   172 -.64383879302889E-05
   173 -.34975672460933E-04
   174 0.26363964628180E-05
   175 -.27689842648885E-04
   176 0.31931979024733E-03
   177 0.58708153744443E-03
   178 0.18900376476542E-04
   179 0.47274811641555E-04
   180 -.41862210999063E-04
   181 -.27962272212206E-04
   182 0.32043117426958E-03
   183 0.59023096321564E-03
   184 -.58594033239350E-04
   185 -.74354676056982E-05
   186 -.28899649805174E-04
 Sym=     2a   
 Ene= -.19039977924361E+02
 Spin= Alpha
 Occup= 2.000000
     1 0.91500232192590E-06
     2 -.22141273314329E-05
     3 -.46743471670992E-05
     4 -.36675211945959E-04
     5 0.27084661816481E-03
     6 0.69797352554999E-05
     7 0.21777753538299E-05
     8 0.29497764951441E-05
     9 -.31953954492346E-04
    10 -.97440207103755E-05
    11 -.17761314714535E-04
    12 0.89642806574326E-04
    13 0.26286987885827E-04
    14 0.63389070517581E-04
    15 -.18096134005203E-03
    16 -.49742886695236E-04
    17 -.18046615261090E-03
    18 0.45971571897768E-03
    19 0.14604145724188E-03
    20 0.68106294088183E-04
    21 -.26794281617355E-04
    22 -.83645511307421E-05
    23 0.35158832748097E-04
    24 -.80000126903096E-05
    25 0.11868300931036E-04
    26 -.54416607300298E-07
    27 0.55339275890741E-04
    28 0.88391129856601E-05
    29 -.64178388876401E-04
    30 0.21398151989596E-04
    31 -.44959785180965E-04
    32 -.80861574021604E-05
    33 0.43001805982875E-05
    34 0.41438201933531E-05
    35 0.62652497404510E-05
    36 0.31952094835286E-05
    37 -.16385693010267E-05
    38 -.39260658679877E-05
    39 -.89645071635065E-05
    40 -.39209488822975E-05
    41 -.44796487214091E-05
    42 0.30590681135858E-06
    43 0.43536592911262E+00
    44 0.63974824329445E+00
    45 0.33210957879109E-01
    46 -.21883100834689E-01
    47 0.10982924640176E-01
    48 -.12584948358976E-02
    49 0.30740036118800E-03
    50 0.94834341519086E-03
    51 0.21185413801096E-02
    52 -.46222847164980E-03
    53 -.16267222051127E-02
    54 -.12279117275515E-02
    55 -.34411683112578E-04
    56 0.11142855007888E-02
    57 0.24009834368384E-04
    58 -.65046317228119E-04
    59 0.41036482859736E-04
    60 -.60398891383993E-04
    61 0.13001407497304E-04
    62 -.21420162603196E-04
    63 -.11167315797429E-03
    64 0.31455665465065E-03
    65 -.20288349667636E-03
    66 0.27974794988599E-03
    67 -.68850873369907E-04
    68 0.11358313673776E-03
    69 0.18785687130556E-04
    70 0.15013151662354E-04
    71 -.61153409120377E-04
    72 -.10337812729339E-04
    73 -.44833957462521E-04
    74 0.51696144234426E-04
    75 -.14865831327440E-04
    76 0.24691700858398E-04
    77 0.30349763674986E-04
    78 -.14362475886328E-04
    79 -.33504426268382E-02
    80 -.49107093374062E-02
    81 -.32141578098796E-03
    82 0.27470796582225E-03
    83 0.19480412397553E-04
    84 -.16156475332108E-04
    85 -.46538821961041E-04
    86 -.39061731971856E-05
    87 0.39027131366457E-04
    88 0.15887330346931E-03
    89 -.37848909601852E-04
    90 0.30746651044532E-03
    91 -.52693603546693E-04
    92 -.40977411163654E-03
    93 -.86535349607390E-05
    94 0.12224686052498E-05
    95 0.74310663554892E-05
    96 -.90278139002156E-05
    97 0.47902892853636E-05
    98 0.10692757246151E-04
    99 0.32727918290768E-04
   100 0.18320010051010E-04
   101 -.51047928341778E-04
   102 0.43678973278245E-04
   103 -.85942069845604E-05
   104 -.51540535502302E-04
   105 -.13884570059703E-05
   106 0.31550108279958E-05
   107 -.11312388265731E-05
   108 0.46789106998845E-05
   109 0.10576756616929E-05
   110 0.58227814633587E-05
   111 -.28161001503733E-05
   112 -.52905668703809E-05
   113 -.43050653143559E-05
   114 0.37117261265058E-06
   115 -.26144137705604E-02
   116 -.38260155632109E-02
   117 -.28140546335829E-03
   118 0.43996490181119E-03
   119 -.14360444213493E-02
   120 0.42950033500610E-05
   121 0.34756644484789E-05
   122 -.92058841165446E-05
   123 -.13965101981193E-04
   124 0.94387379556121E-04
   125 -.18280726826268E-04
   126 -.22444315771710E-03
   127 0.56247610624360E-03
   128 -.49022727298180E-03
   129 0.70448595020985E-05
   130 -.11580652124699E-05
   131 -.58867942896286E-05
   132 -.18901363923859E-04
   133 0.15095722932172E-04
   134 0.18641974615874E-05
   135 0.17027194145143E-04
   136 -.26834208860387E-04
   137 0.98070147152433E-05
   138 0.70390381037008E-04
   139 -.68532351436688E-04
   140 -.75297112264724E-05
   141 0.12136908116830E-05
   142 0.24972991718771E-05
   143 -.15574367682676E-05
   144 -.32654765012074E-06
   145 -.19406912163517E-05
   146 -.31132515490275E-06
   147 -.13017894450333E-05
   148 -.14097872087310E-05
   149 0.24008458456051E-05
   150 0.21007954527182E-06
   151 0.77107693556167E-03
   152 0.11926852539977E-02
   153 -.21692483618502E-02
   154 0.85436010264308E-03
   155 -.36324559126568E-03
   156 0.24021756554140E-03
   157 -.35871486452755E-04
   158 0.73820376750370E-03
   159 0.51629301271013E-03
   160 0.47456154997683E-04
   161 -.86167738269572E-04
   162 -.99175735443987E-04
   163 0.56467830156925E-04
   164 -.59483581367615E-03
   165 -.53992185484394E-03
   166 0.17246876893595E-04
   167 -.15100545308649E-03
   168 -.84621103924337E-04
   169 -.36228921443393E-04
   170 0.75152069129532E-03
   171 0.27740546678636E-03
   172 0.94560954709171E-04
   173 0.10259809759575E-03
   174 0.94610790871479E-04
   175 -.25158673265295E-04
   176 0.36419779117663E-03
   177 0.47051091253428E-03
   178 -.12800778196330E-04
   179 0.40296983791798E-04
   180 -.71765870523240E-04
   181 0.75596070208654E-03
   182 0.96369404677704E-03
   183 -.27428259559441E-02
   184 0.72055089857044E-04
   185 0.16052964985498E-03
   186 -.93774950819546E-03
 Sym=     3a   
 Ene= -.19039666902943E+02
 Spin= Alpha
 Occup= 2.000000
     1 0.97973696595083E-06
     2 -.23414905926485E-05
     3 -.50394083596794E-05
     4 -.35245532873049E-04
     5 0.26636014894468E-03
     6 -.95620231068925E-06
     7 -.64471732064476E-05
     8 0.44266607520286E-05
     9 0.41207176522252E-05
    10 0.28559873797001E-04
    11 -.24380857401472E-04
    12 -.11011299056672E-04
    13 -.76878002140573E-04
    14 0.81552711259197E-04
    15 0.19438457033157E-04
    16 0.14309068078759E-03
    17 -.21541400210379E-03
    18 -.73670313436423E-04
    19 -.45025776505520E-03
    20 0.16970497999794E-03
    21 -.73743161236003E-05
    22 -.28810510119832E-04
    23 0.36184826243433E-04
    24 -.62096054413914E-05
    25 0.97657862939770E-06
    26 0.54817610865643E-05
    27 0.58019668844383E-05
    28 0.68623432809712E-04
    29 -.74425399694151E-04
    30 0.18010187535681E-04
    31 0.14866717624195E-05
    32 0.10040743559893E-04
    33 -.20103558597857E-05
    34 -.40537166569389E-05
    35 0.10651754016688E-05
    36 0.10065756155743E-05
    37 -.55689970928750E-05
    38 -.28901281925943E-05
    39 0.16905998012933E-05
    40 0.11007628696738E-04
    41 0.14610454289391E-05
    42 0.25097211599899E-05
    43 0.32755456275517E-02
    44 0.48284563724925E-02
    45 0.17181301741068E-03
    46 0.13454583669501E-03
    47 -.12860014061182E-02
    48 -.18062054732751E-04
    49 -.35199320568003E-05
    50 0.50133553578621E-05
    51 0.12019348296662E-03
    52 -.44086488380774E-04
    53 -.43762603813849E-04
    54 0.52730273489070E-03
    55 -.19728296262293E-03
    56 -.51086080973562E-03
    57 0.13684949956530E-04
    58 -.14723220028814E-04
    59 0.10382700722845E-05
    60 0.93376697444950E-05
    61 -.10321880490884E-04
    62 -.13641490665011E-04
    63 -.64381634074101E-04
    64 0.82619479858359E-04
    65 -.18237845784259E-04
    66 0.40402021187070E-05
    67 0.36079853698959E-04
    68 0.48510850666722E-04
    69 0.16268477316272E-05
    70 0.13090081984749E-05
    71 -.28997262463265E-05
    72 -.10221134324621E-05
    73 -.32995057333471E-05
    74 0.25122095766719E-05
    75 -.11605318377137E-05
    76 0.15432869444104E-05
    77 0.13781814250839E-05
    78 -.95431867767054E-06
    79 0.43521463966114E+00
    80 0.63952225611477E+00
    81 0.33204269987529E-01
    82 -.21886524324616E-01
    83 0.11012058255210E-01
    84 0.96926012304080E-03
    85 0.11071699044522E-02
    86 0.63797135495474E-03
    87 -.15891575035310E-02
    88 -.18944117445954E-02
    89 -.11027268661724E-02
    90 0.69697384765141E-03
    91 0.12891558009210E-02
    92 0.80227588547423E-03
    93 -.46387649741345E-05
    94 -.40275722997214E-04
    95 0.44914487971348E-04
    96 0.69894960803969E-04
    97 -.33827370461412E-04
    98 0.11040250526627E-04
    99 0.35832269613180E-04
   100 0.18937313612948E-03
   101 -.22520540574266E-03
   102 -.32589162896848E-03
   103 0.16995379908159E-03
   104 -.51802924652434E-04
   105 0.84850806699448E-05
   106 0.41443223248516E-04
   107 -.57848542300456E-04
   108 -.11059258710647E-04
   109 -.23252095426405E-04
   110 0.55598957461331E-04
   111 -.32467159289303E-06
   112 -.32349823207824E-04
   113 0.22013006328523E-04
   114 0.27182906395829E-04
   115 -.11831161067598E-01
   116 -.17372346027616E-01
   117 -.97040167290003E-03
   118 0.70775854637434E-03
   119 -.21467260835478E-03
   120 -.44170693223127E-04
   121 0.60165482456356E-04
   122 -.23839191963290E-04
   123 0.13459401664369E-03
   124 -.15841854221802E-03
   125 0.48280746012457E-06
   126 -.25820096180686E-03
   127 -.28587707331286E-03
   128 -.35417687014395E-03
   129 0.84383522149205E-05
   130 -.16238254650926E-04
   131 0.77999024360051E-05
   132 0.33850248421843E-06
   133 0.65990910764876E-05
   134 -.48108554463966E-05
   135 -.25586264471168E-04
   136 0.72420657704482E-04
   137 -.46834393233314E-04
   138 -.21295058833959E-04
   139 -.38642419447276E-04
   140 0.10553435718301E-04
   141 -.22570628973023E-05
   142 -.14387158818788E-05
   143 -.83198189463672E-06
   144 0.66118857600354E-05
   145 -.62341044428855E-06
   146 -.26369740911895E-05
   147 -.35837181193190E-05
   148 0.25536503516022E-05
   149 0.37531949346635E-05
   150 0.33294920168214E-05
   151 -.27561223634191E-04
   152 0.78282820088501E-03
   153 0.25770594643620E-03
   154 0.64934968377889E-04
   155 -.12072970514424E-03
   156 0.11947850952883E-03
   157 -.40171075645929E-04
   158 0.35362745368340E-03
   159 0.53004041689487E-03
   160 0.41228081589499E-04
   161 -.23283034254902E-04
   162 -.56174384322365E-04
   163 0.77138355713211E-03
   164 0.11732402576132E-02
   165 -.21983081929894E-02
   166 -.69437644705665E-03
   167 -.50386433434666E-03
   168 0.42422176635512E-03
   169 0.41323476964524E-04
   170 -.60803251967453E-03
   171 -.48715284893328E-03
   172 -.14665495884181E-03
   173 0.26558641302057E-04
   174 -.83268380876834E-04
   175 0.75683002442550E-03
   176 0.95652165903055E-03
   177 -.27385285849574E-02
   178 0.23934059474258E-06
   179 -.32620571505500E-03
   180 -.89585502397567E-03
   181 -.25341289164163E-04
   182 0.74865929639777E-03
   183 0.47034364153903E-03
   184 -.10751895475380E-03
   185 -.14561751505546E-04
   186 -.98518968063059E-04
 Sym=     4a   
 Ene= -.19039562668647E+02
 Spin= Alpha
 Occup= 2.000000
     1 0.84044673049519E-06
     2 -.20645893641913E-05
     3 -.41817722656059E-05
     4 -.40769200840551E-04
     5 0.28751600195017E-03
     6 -.44318851467357E-05
     7 0.48253802425614E-05
     8 0.43102401910533E-05
     9 0.19111015417314E-04
    10 -.22233641875104E-04
    11 -.24016294508242E-04
    12 -.49618568356845E-04
    13 0.62969363348990E-04
    14 0.80899254493396E-04
    15 0.85431304925241E-04
    16 -.12898244198085E-03
    17 -.21560686667260E-03
    18 -.32559722773850E-03
    19 0.31501293476893E-03
    20 0.15172691894919E-03
    21 -.18684692030263E-04
    22 -.17333904407873E-04
    23 0.36018596438135E-04
    24 0.15005936055679E-04
    25 0.87823308755191E-05
    26 0.71620196361467E-05
    27 0.42705328822496E-04
    28 0.30260561770251E-04
    29 -.72965890592747E-04
    30 -.40457727305406E-04
    31 0.13187266829377E-06
    32 -.26016079543948E-04
    33 -.57458533475683E-05
    34 0.51515365648279E-05
    35 0.16449080528138E-05
    36 -.18135426790529E-05
    37 -.17504483317591E-05
    38 0.17440940715449E-05
    39 0.95224138833974E-05
    40 -.51610632367595E-05
    41 -.39509698052420E-05
    42 -.15073510293921E-05
    43 0.27015270681211E-02
    44 0.39830357774448E-02
    45 0.13621759995576E-03
    46 -.14532738042954E-04
    47 0.11320562111093E-03
    48 0.28450038599864E-04
    49 0.12890286767101E-04
    50 -.15925400377879E-05
    51 -.12883869415896E-03
    52 -.52037690758404E-04
    53 -.25326198033128E-04
    54 -.19049636353329E-03
    55 0.28481846349943E-03
    56 -.37379867758608E-03
    57 -.10730182976185E-04
    58 -.89280538008011E-06
    59 0.11622988356265E-04
    60 0.84512857514469E-05
    61 -.66314543153719E-05
    62 -.40365325202628E-05
    63 0.63897807339040E-04
    64 0.36232196930721E-05
    65 -.67521027032112E-04
    66 -.20587342807385E-04
    67 0.17187776689632E-04
    68 0.27523053113261E-04
    69 -.56985333307366E-05
    70 0.26187066660825E-06
    71 -.49725194886104E-05
    72 0.30411677381327E-05
    73 -.28697987778078E-05
    74 0.37066284085664E-05
    75 0.46042170016125E-05
    76 0.25184624106982E-05
    77 0.29647065490189E-05
    78 -.48531709786855E-05
    79 0.11808131539341E-01
    80 0.17367144404703E-01
    81 0.81894603316636E-03
    82 -.28602343731978E-03
    83 -.10695008199824E-02
    84 0.24836149597096E-04
    85 0.38452149396834E-04
    86 0.13287639678776E-04
    87 -.12980262695891E-03
    88 -.12044992833652E-03
    89 -.38627980040793E-04
    90 -.45493646595371E-03
    91 -.42834276580175E-03
    92 -.37478043331929E-03
    93 -.16552600395504E-04
    94 0.17721258331181E-04
    95 -.11686579356776E-05
    96 0.10457787251522E-04
    97 -.73095558733340E-05
    98 0.11268592777655E-04
    99 0.51855819681909E-04
   100 -.39063433157712E-04
   101 -.12792386524197E-04
   102 -.79365599293520E-04
   103 0.34741996556361E-04
   104 -.44277994792166E-04
   105 0.79252010181202E-06
   106 0.34119744958349E-05
   107 -.40902494606053E-05
   108 -.12792075951699E-05
   109 -.24281421511206E-05
   110 0.43465964827427E-05
   111 0.21593030245788E-06
   112 -.21495019949889E-05
   113 0.11410490205644E-05
   114 0.24427018703658E-05
   115 0.43521877689815E+00
   116 0.63952970547501E+00
   117 0.33200351519562E-01
   118 -.21872808314810E-01
   119 0.10962280149988E-01
   120 0.57010858146102E-03
   121 -.12435575902173E-02
   122 0.83502639841429E-03
   123 -.10098153340969E-02
   124 0.20695889478098E-02
   125 -.14270172017014E-02
   126 0.86305931457652E-03
   127 -.10523408513103E-02
   128 0.91689883897474E-03
   129 -.75495905566481E-04
   130 0.47087335739659E-04
   131 0.28408569826822E-04
   132 -.85060783554683E-05
   133 0.45101613982118E-04
   134 0.25265928615698E-04
   135 0.35898409792864E-03
   136 -.21347495617111E-03
   137 -.14550914175753E-03
   138 0.44242446630876E-04
   139 -.22060758976872E-03
   140 -.13101911141523E-03
   141 0.26590859614858E-04
   142 0.42892427318797E-04
   143 -.47200686630461E-04
   144 0.32177091687181E-05
   145 -.33673220590473E-04
   146 0.48939805428980E-05
   147 -.38893090976103E-04
   148 -.23873009332406E-04
   149 0.58432385791328E-04
   150 -.99006649369193E-06
   151 0.66952764212133E-04
   152 -.54619540969533E-03
   153 -.54497341717756E-03
   154 0.11460764759259E-03
   155 0.81598295459437E-04
   156 -.10299164408076E-03
   157 0.75349460517960E-03
   158 0.99217285330633E-03
   159 -.27262530882689E-02
   160 -.38477367135179E-03
   161 -.17754646605826E-04
   162 -.87620675567709E-03
   163 -.10093913309177E-04
   164 0.78421788622709E-03
   165 0.19847671470721E-03
   166 -.13415118730585E-03
   167 0.12941518423796E-04
   168 0.13634752558657E-03
   169 0.77196982797007E-03
   170 0.11945919085627E-02
   171 -.21958945340439E-02
   172 -.56753337675818E-04
   173 0.92617741953295E-03
   174 0.26041928535441E-03
   175 -.10982324747068E-04
   176 0.77775047245505E-03
   177 0.43250699670560E-03
   178 0.27398896791893E-04
   179 0.74050836879109E-04
   180 -.13993139823945E-03
   181 -.15874199972559E-04
   182 0.40268217660808E-03
   183 0.44621245103575E-03
   184 -.46991854250495E-04
   185 -.29605125645985E-04
   186 -.79389274065186E-04
 Sym=     5a   
 Ene= -.92667963310121E+01
 Spin= Alpha
 Occup= 2.000000
     1 -.29289370993761E+00
     2 -.21826449759442E+00
     3 0.82942677978354E+00
     4 0.29071583914481E-01
     5 -.10585278989814E-01
     6 -.74532748093153E-04
     7 -.44971455025228E-04
     8 -.66853014863410E-03
     9 -.64636905788425E-04
    10 -.38418826419199E-04
    11 -.57336121137562E-03
    12 0.49367261787586E-04
    13 0.27659289856515E-04
    14 0.42392710253032E-03
    15 -.14357581280739E-03
    16 -.80909231531690E-04
    17 -.12307225063750E-02
    18 0.31916727269229E-03
    19 0.17801248958537E-03
    20 0.27332288137972E-02
    21 -.43957258799801E-04
    22 -.46519510283151E-04
    23 0.90476769082952E-04
    24 0.11554354389657E-05
    25 0.18216973019825E-04
    26 0.10366356416618E-04
    27 0.10315942591358E-03
    28 0.10786585222197E-03
    29 -.21102527813555E-03
    30 -.27095697612770E-05
    31 -.43031915890102E-04
    32 -.23441644584272E-04
    33 -.32591597588426E-05
    34 0.86801762375569E-05
    35 -.68711117960869E-05
    36 0.68554259742719E-05
    37 -.10245389889733E-04
    38 0.59461039074941E-05
    39 -.24828043120896E-05
    40 -.14002885845806E-05
    41 0.32724599267365E-05
    42 0.62656860571128E-06
    43 -.91237889154317E-07
    44 0.62842954622657E-05
    45 -.91489758525979E-04
    46 0.50899963466406E-03
    47 -.18815630612900E-02
    48 -.76545387226236E-04
    49 -.29761881608760E-04
    50 0.36859205420390E-04
    51 0.22999128733458E-03
    52 0.16766561162420E-03
    53 -.21553303210703E-03
    54 -.69478436660486E-03
    55 0.76545753643956E-04
    56 -.13133615818896E-02
    57 -.24360418882701E-04