[Molden Format]
[Title]
                                                                                
[Atoms] AU
 cl    1   17 -.16249005278406E+01 0.10310479508508E+01 0.15981835153541E+01
 o     2    8 0.41244829906540E+01 -.52419987424608E+00 0.28107430000746E+01
 o     3    8 0.17020540104928E+01 -.27981231290375E+01 -.14987114778643E+01
 o     4    8 -.26346238815430E+01 0.24635827145054E+00 -.42561527216640E+01
 h     5    1 0.37451738185200E+01 -.95167100703003E+00 0.10765852706862E+01
 h     6    1 -.25866002219704E+01 -.12897125490709E+01 -.34802427372585E+01
 h     7    1 0.11311298598899E+01 -.10864286976981E+01 -.17992511889880E+01
 h     8    1 -.24150624192694E+01 0.13288046853362E+01 -.27844495298118E+01
 h     9    1 0.10892994391085E+01 -.30292230952163E+01 0.18030921738893E+00
 h    10    1 0.25351936290728E+01 -.56660851287000E-03 0.36009262022396E+01
[GTO]
    1 0
 s    5 1.00
 0.10449827566000E+05 0.54265953789407E-02
 0.15717365221000E+04 0.40626378128836E-01
 0.35712065523000E+03 0.18359747852877E+00
 0.10025185935000E+03 0.47438948768198E+00
 0.30812727554000E+02 0.43735181104122E+00
 s    3 1.00
 0.51923789434000E+02 -.92754154848099E-01
 0.57045760975000E+01 0.56380825544207E+00
 0.23508376809000E+01 0.50367044629712E+00
 s    1 1.00
 0.44605124672000E+00 0.10000000000000E+01
 s    1 1.00
 0.16848856190000E+00 0.10000000000000E+01
 p    5 1.00
 0.30766790569000E+03 -.88797025588865E-02
 0.72102015515000E+02 -.64284071721237E-01
 0.22532680262000E+02 -.24288739736006E+00
 0.78991765444000E+01 -.48340836369878E+00
 0.28767268321000E+01 -.38952563875509E+00
 p    1 1.00
 0.77459363955000E+00 0.10000000000000E+01
 p    1 1.00
 0.21037699698000E+00 0.10000000000000E+01
 d    1 1.00
 0.65000000000000E+00 0.10000000000000E+01
 
    2 0
 s    5 1.00
 0.22661767785000E+04 -.53893503921743E-02
 0.34087010191000E+03 -.40234721388960E-01
 0.77363135167000E+02 -.18008184205526E+00
 0.21479644940000E+02 -.46828857657651E+00
 0.66589433124000E+01 -.44692617160187E+00
 s    1 1.00
 0.80975975668000E+00 0.10000000000000E+01
 s    1 1.00
 0.25530772234000E+00 0.10000000000000E+01
 p    3 1.00
 0.17721504317000E+02 0.62630248763161E-01
 0.38635505440000E+01 0.33331138482352E+00
 0.10480920883000E+01 0.74148638308122E+00
 p    1 1.00
 0.27641544411000E+00 0.10000000000000E+01
 d    1 1.00
 0.12000000000000E+01 0.10000000000000E+01
 
    3 0
 s    5 1.00
 0.22661767785000E+04 -.53893503921743E-02
 0.34087010191000E+03 -.40234721388960E-01
 0.77363135167000E+02 -.18008184205526E+00
 0.21479644940000E+02 -.46828857657651E+00
 0.66589433124000E+01 -.44692617160187E+00
 s    1 1.00
 0.80975975668000E+00 0.10000000000000E+01
 s    1 1.00
 0.25530772234000E+00 0.10000000000000E+01
 p    3 1.00
 0.17721504317000E+02 0.62630248763161E-01
 0.38635505440000E+01 0.33331138482352E+00
 0.10480920883000E+01 0.74148638308122E+00
 p    1 1.00
 0.27641544411000E+00 0.10000000000000E+01
 d    1 1.00
 0.12000000000000E+01 0.10000000000000E+01
 
    4 0
 s    5 1.00
 0.22661767785000E+04 -.53893503921743E-02
 0.34087010191000E+03 -.40234721388960E-01
 0.77363135167000E+02 -.18008184205526E+00
 0.21479644940000E+02 -.46828857657651E+00
 0.66589433124000E+01 -.44692617160187E+00
 s    1 1.00
 0.80975975668000E+00 0.10000000000000E+01
 s    1 1.00
 0.25530772234000E+00 0.10000000000000E+01
 p    3 1.00
 0.17721504317000E+02 0.62630248763161E-01
 0.38635505440000E+01 0.33331138482352E+00
 0.10480920883000E+01 0.74148638308122E+00
 p    1 1.00
 0.27641544411000E+00 0.10000000000000E+01
 d    1 1.00
 0.12000000000000E+01 0.10000000000000E+01
 
    5 0
 s    3 1.00
 0.13010701000000E+02 0.33485484812989E-01
 0.19622572000000E+01 0.23472187088125E+00
 0.44453796000000E+00 0.81377028525955E+00
 s    1 1.00
 0.12194962000000E+00 0.10000000000000E+01
 p    1 1.00
 0.80000000000000E+00 0.10000000000000E+01
 
    6 0
 s    3 1.00
 0.13010701000000E+02 0.33485484812989E-01
 0.19622572000000E+01 0.23472187088125E+00
 0.44453796000000E+00 0.81377028525955E+00
 s    1 1.00
 0.12194962000000E+00 0.10000000000000E+01
 p    1 1.00
 0.80000000000000E+00 0.10000000000000E+01
 
    7 0
 s    3 1.00
 0.13010701000000E+02 0.33485484812989E-01
 0.19622572000000E+01 0.23472187088125E+00
 0.44453796000000E+00 0.81377028525955E+00
 s    1 1.00
 0.12194962000000E+00 0.10000000000000E+01
 p    1 1.00
 0.80000000000000E+00 0.10000000000000E+01
 
    8 0
 s    3 1.00
 0.13010701000000E+02 0.33485484812989E-01
 0.19622572000000E+01 0.23472187088125E+00
 0.44453796000000E+00 0.81377028525955E+00
 s    1 1.00
 0.12194962000000E+00 0.10000000000000E+01
 p    1 1.00
 0.80000000000000E+00 0.10000000000000E+01
 
    9 0
 s    3 1.00
 0.13010701000000E+02 0.33485484812989E-01
 0.19622572000000E+01 0.23472187088125E+00
 0.44453796000000E+00 0.81377028525955E+00
 s    1 1.00
 0.12194962000000E+00 0.10000000000000E+01
 p    1 1.00
 0.80000000000000E+00 0.10000000000000E+01
 
   10 0
 s    3 1.00
 0.13010701000000E+02 0.33485484812989E-01
 0.19622572000000E+01 0.23472187088125E+00
 0.44453796000000E+00 0.81377028525955E+00
 s    1 1.00
 0.12194962000000E+00 0.10000000000000E+01
 p    1 1.00
 0.80000000000000E+00 0.10000000000000E+01
 
[MO]
 Sym=     1a   
 Ene= -.10138292877929E+03
 Spin= Alpha
 Occup= 2.000000
     1 0.99402525298054E+00
     2 0.22290424766282E-01
     3 -.96892404750240E-02
     4 0.55682612016758E-02
     5 -.32046943939091E-04
     6 0.19633148074779E-04
     7 0.35432044935746E-04
     8 -.14239404090630E-03
     9 0.84512140592459E-04
    10 0.15573042756716E-03
    11 0.31007223066233E-03
    12 -.18560658195582E-03
    13 -.35308443021153E-03
    14 -.15105156146653E-05
    15 -.22542915672200E-04
    16 0.24053431286866E-04
    17 -.21610440581084E-04
    18 0.13335008770329E-04
    19 0.25981169952631E-05
    20 -.15510895403474E-04
    21 -.16937731069626E-03
    22 0.56883596142563E-03
    23 -.13878142085986E-04
    24 0.17608858904941E-04
    25 -.55142037527826E-04
    26 -.18015907083762E-03
    27 0.27512134246794E-04
    28 0.23724015726627E-03
    29 0.25574133434073E-04
    30 -.94911883223389E-06
    31 -.24625014601839E-04
    32 -.69252924516482E-05
    33 -.52859598435335E-05
    34 -.12173838646293E-05
    35 -.15939428200030E-04
    36 -.18475710805438E-03
    37 0.74061911116348E-03
    38 -.27448622122279E-04
    39 0.39156377928849E-04
    40 0.48295567517384E-04
    41 -.66510952492955E-04
    42 0.34170779800755E-04
    43 0.74000777769345E-05
    44 0.64352922620462E-05
    45 -.10262726854204E-05
    46 -.54090195766258E-05
    47 -.12454179735344E-04
    48 -.12022605688652E-04
    49 0.21924950725588E-04
    50 -.26608697485362E-04
    51 -.28513510292457E-03
    52 0.89773678498692E-03
    53 -.22127763784852E-04
    54 -.60096586623368E-04
    55 0.14892760686501E-04
    56 0.10115276583033E-03
    57 0.20456644609049E-03
    58 0.22453697959529E-03
    59 -.89640474345935E-05
    60 -.14744103570318E-04
    61 0.23708151004912E-04
    62 0.22394568314805E-05
    63 0.91623186932846E-05
    64 0.58477714929233E-05
    65 0.84954748100563E-04
    66 0.17931675175950E-03
    67 0.99773738123893E-05
    68 -.91360227156975E-05
    69 -.10008024094054E-04
    70 -.10909878609934E-04
    71 0.29903079723336E-04
    72 0.10908933812941E-04
    73 -.52970997997519E-04
    74 -.74068354481414E-05
    75 0.30048869391673E-04
    76 -.55482181082810E-03
    77 0.43411094224342E-04
    78 0.42686315499130E-04
    79 -.13082758867923E-03
    80 -.12642678542886E-03
    81 -.96142440025073E-03
    82 -.21968559761739E-04
    83 0.12801426552823E-03
    84 -.74261420372138E-04
    85 0.42556504061766E-04
    86 -.50599560710410E-03
    87 0.35311411759880E-04
    88 -.93267742869528E-04
    89 0.65472131590868E-04
    90 -.45372256495816E-04
    91 -.86295159784560E-03
    92 0.91018538335974E-05
    93 0.82153068074797E-05
    94 0.14157173540095E-03
 Sym=     2a   
 Ene= -.19047268267674E+02
 Spin= Alpha
 Occup= 2.000000
     1 -.90848760840431E-05
     2 0.80681384135353E-04
     3 -.57928963535900E-03
     4 0.10016367956759E-02
     5 -.28202915575819E-04
     6 0.29364824877167E-04
     7 0.20575578104233E-04
     8 -.17013867866332E-03
     9 0.17973380961178E-03
    10 0.12628622894574E-03
    11 0.51274118189386E-03
    12 -.55478858197684E-03
    13 -.39011143131602E-03
    14 -.39009699110693E-06
    15 0.16667510956590E-04
    16 -.16277413965483E-04
    17 -.49916049915558E-04
    18 -.68727187562254E-04
    19 0.51943013078478E-04
    20 0.54421307153161E-03
    21 -.48528938078589E-03
    22 0.83644535198214E-03
    23 0.42652556894126E-04
    24 0.31062004329139E-04
    25 0.17363064277980E-03
    26 -.25940645491532E-03
    27 -.23231065210823E-03
    28 -.43577757092369E-03
    29 0.25342020846998E-04
    30 0.10445390501881E-04
    31 -.35787411348879E-04
    32 0.16279039817360E-04
    33 0.29013785766302E-04
    34 0.45328472617959E-04
    35 0.98895600549368E+00
    36 -.39387106751133E-01
    37 0.15847635627338E-01
    38 0.14732331394703E-02
    39 -.18094109903482E-02
    40 -.18743295616974E-02
    41 -.16143433704294E-03
    42 0.71829721788276E-03
    43 0.28476880453896E-03
    44 0.38806368247922E-03
    45 -.15882234719633E-03
    46 -.22924133528290E-03
    47 0.23726726620454E-03
    48 0.32440924083735E-03
    49 0.28370833212310E-03
    50 0.42532841471893E-03
    51 -.22350369715253E-03
    52 0.64659149652910E-03
    53 -.10900421956287E-03
    54 -.15432296425251E-04
    55 -.87593571096444E-05
    56 0.38695789913173E-03
    57 -.47922185430552E-03
    58 0.25278433430313E-03
    59 -.24963356957969E-04
    60 0.37762119788228E-04
    61 -.12798762830259E-04
    62 -.17047890870970E-04
    63 0.17540555868047E-04
    64 -.40240676047788E-04
    65 -.27869177964988E-03
    66 -.59854191023345E-03
    67 0.25418415604905E-03
    68 0.35484083053967E-03
    69 0.25940204014321E-03
    70 -.22068726899977E-03
    71 -.47173170761193E-03
    72 -.13372888077801E-04
    73 -.23464745752379E-03
    74 0.13010977432683E-03
    75 0.18969184378140E-02
    76 -.35681269557749E-02
    77 0.94668584022754E-03
    78 -.24992273121284E-02
    79 0.25695818778779E-03
    80 -.28175911181458E-03
    81 0.81794387963977E-03
    82 0.51571888694914E-04
    83 -.55731822292149E-04
    84 -.69280961033871E-04
    85 0.21932746776699E-02
    86 -.27299149145885E-02
    87 0.11166032287581E-02
    88 0.21035049290862E-03
    89 -.27546479548920E-02
    90 -.22921444891949E-03
    91 0.45635674703798E-03
    92 0.42015558708074E-04
    93 -.31814379823298E-04
    94 -.43863535788798E-05
 Sym=     3a   
 Ene= -.19029421702545E+02
 Spin= Alpha
 Occup= 2.000000
     1 -.15536152531539E-04
     2 0.13651149592829E-03
     3 -.91173972125172E-03
     4 0.15168922359861E-02
     5 0.16103044355336E-04
     6 -.15267986004517E-04
     7 0.68314873854569E-04
     8 0.88682346291188E-04
     9 -.73331860411556E-04
    10 0.39516851042350E-03
    11 -.21542659908910E-03
    12 0.11399105522685E-03
    13 -.10898270957137E-02
    14 -.49565539968597E-04
    15 -.53375329888836E-04
    16 0.10294086985743E-03
    17 0.29079230353369E-05
    18 0.29717597520231E-04
    19 -.85558791846801E-06
    20 -.15179616399802E-03
    21 0.59801876425685E-04
    22 -.17711818734831E-03
    23 -.99951809762740E-05
    24 -.79741705297086E-05
    25 0.72308951107648E-07
    26 0.63682132389472E-04
    27 0.32240246679034E-04
    28 0.66617555909234E-04
    29 0.99420718993199E-07
    30 0.72116993591073E-05
    31 -.73111200781005E-05
    32 0.36165834306778E-06
    33 -.80459562436518E-06
    34 -.41807030895879E-05
    35 -.45664976342275E-03
    36 -.20973502335699E-03
    37 0.78182339540206E-03
    38 0.48268190859941E-04
    39 0.46161456618920E-04
    40 0.45493024818767E-04
    41 -.41735051616174E-03
    42 0.34773599812080E-03
    43 -.21093806209273E-03
    44 -.39078347847071E-05
    45 0.29135370015141E-04
    46 -.25227535230434E-04
    47 -.47461057499651E-04
    48 0.17197773647165E-05
    49 -.18977922753004E-04
    50 0.98899378791924E+00
    51 -.39040888781699E-01
    52 0.15296270735948E-01
    53 -.21293331928809E-03
    54 0.87813856796950E-03
    55 -.27080803476953E-02
    56 0.92469835902547E-04
    57 0.31828722017114E-03
    58 0.59726048719137E-03
    59 0.60254232102716E-03
    60 -.52404573860364E-03
    61 -.78496582423529E-04
    62 -.57262059291226E-04
    63 -.76033638029312E-04
    64 -.26489092962696E-05
    65 0.54976513801275E-04
    66 0.95375699207651E-04
    67 0.12801666624999E-04
    68 0.15068141886444E-04
    69 0.26157727053723E-04
    70 0.24428934616201E-02
    71 -.26220500995506E-02
    72 -.28773027426580E-04
    73 0.27439928039278E-02
    74 -.14185857615539E-02
    75 -.17580289282350E-03
    76 -.52150064186246E-03
    77 -.41848156303321E-04
    78 0.25944906112411E-03
    79 -.34687632039658E-04
    80 0.17497708639619E-02
    81 -.35277346972754E-02
    82 -.27801759633704E-03
    83 -.14575548024227E-02
    84 -.21848670545057E-02
    85 -.22138117069770E-03
    86 0.38442484398262E-03
    87 0.53065169415641E-04
    88 -.25169231192009E-04
    89 -.12944626139119E-04
    90 0.47426835723913E-04
    91 -.25189557946790E-04
    92 -.13835013930683E-05
    93 -.29616454886379E-05
    94 -.62116914850340E-05
 Sym=     4a   
 Ene= -.19012662865039E+02
 Spin= Alpha
 Occup= 2.000000
     1 -.90809486648994E-05
     2 0.80341425681326E-04
     3 -.55356083565486E-03
     4 0.91565705114461E-03
     5 -.33690796388516E-04
     6 0.16438459988770E-05
     7 -.35511649095068E-04
     8 -.20615791704005E-03
     9 0.16354335194694E-04
    10 -.19326482965029E-03
    11 0.61678162308043E-03
    12 -.81717332006410E-04
    13 0.45729800566734E-03
    14 0.69388322485481E-04
    15 -.34868415884809E-04
    16 -.34519906600671E-04
    17 -.26599388340045E-04
    18 0.54970456619365E-04
    19 -.24548804111451E-04
    20 0.98894175653996E+00
    21 -.39511826131147E-01
    22 0.16555345982805E-01
    23 0.22801629780304E-02
    24 -.10485609293218E-03
    25 0.14894104149153E-02
    26 -.39418220663381E-03
    27 -.83882447096843E-04
    28 -.70637420937244E-03
    29 -.40493813497406E-04
    30 0.50862067178980E-03
    31 -.46812685829240E-03
    32 0.19686096272669E-03
    33 0.18315090826282E-03
    34 -.33001492646091E-03
    35 -.63101537168192E-03
    36 -.46823504944370E-03
    37 0.13448964419530E-02
    38 -.27898546020817E-03
    39 -.11130056421437E-03
    40 -.74653020825348E-04
    41 0.65168670823380E-03
    42 0.52654358113523E-03
    43 0.10904968473964E-02
    44 -.54046910390356E-04
    45 -.15707955368994E-04
    46 0.69754865759350E-04
    47 0.42099510315793E-05
    48 -.18452842647821E-04
    49 0.12227883912452E-04
    50 0.16092504057836E-03
    51 0.53705788358647E-04
    52 -.11394225088428E-03
    53 0.61652337844099E-04
    54 0.96177654798188E-06
    55 0.12878227651689E-04
    56 -.19013662108122E-03
    57 0.21222823420435E-04
    58 -.12909885568778E-03
    59 0.81048076077615E-05
    60 -.52738577954025E-05
    61 -.28309498123589E-05
    62 0.18484964790021E-05
    63 -.72571394526925E-05
    64 -.87981962424748E-06
    65 0.23701285750004E-02
    66 -.51047387468423E-02
    67 0.85468547313842E-03
    68 0.68399020223173E-03
    69 0.28761445977758E-02
    70 0.10690277748899E-03
    71 -.22417840874526E-03
    72 -.21711447127863E-04
    73 0.16142703530063E-04
    74 -.16729599498286E-04
    75 -.62360170369268E-03
    76 0.13989082554444E-02
    77 0.12166935140378E-04
    78 -.85475568472826E-05
    79 0.86017878390815E-05
    80 0.12311871563236E-03
    81 -.10326033826314E-03
    82 -.22085396417597E-04
    83 -.11802309095499E-04
    84 -.53808989305355E-05
    85 -.56690298746832E-03
    86 -.12336041266354E-04
    87 -.13881895486670E-03
    88 -.10376406022004E-03
    89 0.29758639452619E-03
    90 0.18239677522829E-02
    91 -.26565515339593E-02
    92 0.24008913615964E-02
    93 -.77656730644178E-03
    94 -.10844446039246E-02
 Sym=     5a   
 Ene= -.92319934105309E+01
 Spin= Alpha
 Occup= 2.000000
     1 -.31187737145037E+00
     2 0.10222115145965E+01
     3 0.47084059560951E-01
     4 -.17406670917130E-01
     5 -.47859438361659E-03
     6 0.35016150169513E-03
     7 0.60656286866378E-03
     8 0.38799705970082E-03
     9 -.23742279324959E-03
    10 -.42942011924211E-03
    11 -.78277309202934E-03
    12 0.47369379256538E-03
    13 0.88534917095186E-03
    14 -.16308518307212E-05
    15 0.38059967936340E-04
    16 -.36429116105619E-04
    17 0.33370171976097E-04
    18 -.22325425480479E-04
    19 -.58563919623568E-05
    20 0.35532418064049E-04
    21 0.38653631970614E-03
    22 -.13510149820668E-02
    23 0.33531037064821E-04
    24 -.40758493661715E-04
    25 0.13734089757264E-03
    26 0.37975230673447E-03
    27 -.47986011385542E-04
    28 -.57962664591866E-03
    29 -.47415021191417E-04
    30 -.17580877961208E-05
    31 0.49173108987538E-04
    32 0.10516905791006E-04
    33 0.48691453195793E-05
    34 0.55472788084205E-05
    35 0.36488797122958E-04
    36 0.42408392918513E-03
    37 -.17299193607497E-02
    38 0.63507365488212E-04
    39 -.87023917136524E-04
    40 -.10842153174872E-03
    41 0.13038801902419E-03
    42 -.35694765775698E-04
    43 -.16941317325045E-04
    44 -.16569002519515E-04
    45 0.70614831147160E-05
    46 0.95075194047991E-05
    47 0.22419120818345E-04
    48 0.25491504296007E-04
    49 -.50607040465576E-04
    50 0.60934826932560E-04
    51 0.64454853236707E-03
    52 -.20974976963098E-02
    53 0.46277153033058E-04
    54 0.13984565777906E-03
    55 -.37011208616461E-04
    56 -.22547899233789E-03
    57 -.48566030922119E-03
    58 -.46004364570424E-03
    59 0.11117496620989E-04
    60 0.31121941673411E-04
    61 -.42239438294400E-04
    62 -.34549789507664E-05
    63 -.16211105286870E-04
    64 -.35941433003833E-05
    65 -.21773813926138E-03
    66 -.42042870720759E-03
    67 -.25521919819564E-04
    68 0.28180007847644E-04
    69 0.25272920307254E-04
    70 -.99772016390127E-05
    71 -.43763410018743E-04
    72 -.23029591733102E-04
    73 0.11797557309484E-03
    74 0.21677962640052E-04
    75 -.61201419006247E-04
    76 0.13101250299296E-02
    77 -.12592382164390E-03
    78 -.44669219034320E-04
    79 0.32309982839914E-03
    80 0.27616850885112E-03
    81 0.24232383274352E-02
    82 0.61442118236157E-04
    83 -.26782611937414E-03
    84 0.22907938331757E-03
    85 -.97100067943442E-04
    86 0.12952244815402E-02
    87 -.10422261344485E-03
    88 0.23545773656374E-03
    89 -.13001085518859E-03
    90 0.87148770861273E-04
    91 0.21947189236017E-02
    92 -.81573867074159E-04
    93 -.22821043065456E-05
    94 -.32408108332080E-03
 Sym=     6a   
 Ene= -.69681790492289E+01
 Spin= Alpha
 Occup= 2.000000
     1 0.11317278916279E-03
     2 -.41903370689639E-03
     3 0.33569293779006E-03
     4 -.49559547994740E-03
     5 0.38424467835406E+00
     6 -.16504539657292E+00
     7 0.88773816290410E+00
     8 -.19531289149952E-01
     9 0.83530658050363E-02
    10 -.45019628918491E-01
    11 0.33203264574528E-02
    12 -.13373235482906E-02
    13 0.73910159705864E-02
    14 0.45911415517769E-04
    15 0.83313768724835E-05
    16 -.54242792390252E-04
    17 -.56039833263299E-05
    18 0.67430882741144E-05
    19 0.73137332006667E-05
    20 -.40048483337970E-04
    21 -.43165674788788E-03
    22 0.14068370350310E-02
    23 0.12078360906458E-05
    24 -.13675691329529E-04
    25 -.10292459483769E-03
    26 -.46887589334132E-03
    27 0.21079156414023E-03
    28 0.54049816091826E-03
    29 0.51684795827227E-04
    30 -.61230871077262E-05
    31 -.45561708719501E-04
    32 -.20249818050667E-04
    33 -.99440147654555E-05
    34 -.52123768052364E-05
    35 0.29125878225642E-05
    36 0.28828980294258E-04
    37 -.57803647351174E-04
    38 0.11498030944680E-04
    39 0.97922565569590E-06
    40 -.26771472210180E-04
    41 -.28452161894746E-04
    42 -.56033780647287E-04
    43 0.11061925018620E-03
    44 -.71495254241785E-05
    45 -.75792018271354E-05
    46 0.14728727251314E-04
    47 0.74075366476164E-05
    48 -.71009418108128E-05
    49 -.11130443683114E-04
    50 0.62214833922625E-04
    51 0.64488071781169E-03
    52 -.20373011051284E-02
    53 0.17159480156590E-05
    54 0.15950595830954E-03
    55 -.16048703520031E-04
    56 -.63641049547947E-04
    57 -.51940533025744E-03
    58 -.38652891039568E-03
    59 0.12631298656310E-05
    60 0.43539431228413E-04
    61 -.44802561094044E-04
    62 0.59610294586664E-06
    63 -.74751648170281E-05
    64 0.43680220068925E-05
    65 0.60150332543999E-04
    66 0.32730728867281E-03
    67 0.55854631832286E-04
    68 -.23543178956509E-05
    69 0.39163846502934E-04
    70 -.90536516423186E-04
    71 0.10200395028037E-03
    72 0.56153591795654E-05
    73 0.75165932148568E-04
    74 0.22323014930701E-04
    75 0.15839892960024E-04
    76 0.12595586390086E-03
    77 -.43729340536417E-04
    78 0.27173245888262E-05
    79 0.11457867069125E-03
    80 0.21640256357573E-03
    81 0.25805479076637E-02
    82 0.55544878404064E-04
    83 -.25522941662998E-03
    84 0.37256709366334E-03
    85 -.45843595527011E-04
    86 -.98349150771039E-04
    87 -.50178585357801E-05
    88 -.12476156757265E-04
    89 0.34364843471422E-04
    90 -.15324381903932E-03
    91 -.21161398178472E-02
    92 0.60371170205073E-04
    93 0.12402944347981E-04
    94 0.29228889209126E-03
 Sym=     7a   
 Ene= -.69674685519474E+01
 Spin= Alpha
 Occup= 2.000000
     1 0.30221332699004E-03
     2 -.11328165188428E-02
     3 0.10131997704002E-02
     4 -.14263128295236E-02
     5 -.67283604493806E+00
     6 0.59115852865795E+00
     7 0.40114028127063E+00
     8 0.33963790508779E-01
     9 -.29800092604619E-01
    10 -.20220089251229E-01
    11 -.53275234008090E-02
    12 0.45908218137512E-02
    13 0.30973047939055E-02
    14 -.56805665327264E-05
    15 0.32287102243238E-05
    16 0.24518563084025E-05
    17 0.21981416955706E-04
    18 -.12285397533895E-05
    19 -.95355547328332E-05
    20 0.79783364209851E-05
    21 0.93566809853836E-04
    22 -.36551339953673E-03
    23 0.44518419830448E-04
    24 -.33575389258577E-04
    25 0.81494541521923E-04
    26 0.14547122576511E-04
    27 0.61289753996272E-04
    28 -.26150892924052E-03
    29 -.19099908417528E-04
    30 -.11628993630646E-04
    31 0.30728902048174E-04
    32 -.46190718513872E-05
    33 -.85521260275755E-05
    34 0.99875054171412E-05
    35 0.39950108863204E-04
    36 0.47846914680015E-03
    37 -.19844110033099E-02
    38 0.76338963958853E-04
    39 -.83589771139212E-04
    40 -.12356401371797E-03
    41 0.10103906540011E-03
    42 -.13930373342288E-03
    43 0.76683779828650E-04
    44 -.15746897083815E-04
    45 0.20744268881144E-05
    46 0.13672470195700E-04
    47 0.27936551272036E-04
    48 0.19384716326809E-04
    49 -.49364629907957E-04
    50 0.64632134409563E-05
    51 0.73038272748492E-04
    52 -.16107916186324E-03
    53 0.52317404413338E-04
    54 0.16764617239801E-04
    55 -.24802224423342E-04
    56 -.20988290741324E-03
    57 0.10688932266529E-03
    58 0.17287437090011E-04
    59 -.96905097950445E-05
    60 0.11630151821926E-04
    61 -.19396420268810E-05
    62 -.41583887503210E-05
    63 -.14068448669203E-04
    64 0.19422589808071E-04
    65 -.25201602076629E-03
    66 -.27839059205298E-03
    67 0.33518059032390E-04
    68 0.13790516790409E-04
    69 0.37125964959303E-04
    70 0.92903128400567E-05
    71 -.34475326190780E-04
    72 -.40194280894247E-04
    73 0.51822469205311E-04
    74 -.25897187296164E-04
    75 -.72465393213639E-04
    76 0.18528625083918E-02
    77 -.15070355910749E-03
    78 -.78386040000595E-04
    79 0.31098917902499E-03
    80 0.12933070288209E-03
    81 -.80012318321995E-04
    82 0.10043640004867E-03
    83 -.51099264258970E-04
    84 0.16644202973296E-03
    85 -.12734439121416E-03
    86 0.11918378944410E-02
    87 -.82700812869245E-04
    88 0.23738384991656E-03
    89 -.10199404827207E-03
    90 0.13309705007613E-05
    91 0.89243427205990E-03
    92 -.15717095059211E-03
    93 0.62173761789525E-05
    94 -.18601158235922E-03
 Sym=     8a   
 Ene= -.69666063223510E+01
 Spin= Alpha
 Occup= 2.000000
     1 -.39938027003437E-04
     2 0.15695816307020E-03
     3 -.22021702437156E-03
     4 0.34741592677268E-03
     5 0.60230088179299E+00
     6 0.76583242707011E+00
     7 -.11833125000967E+00
     8 -.30179513183447E-01
     9 -.38303480307782E-01
    10 0.59071137871047E-02
    11 0.43795816555539E-02
    12 0.54038780465645E-02
    13 -.83610644548867E-03
    14 0.19252749100698E-05
    15 -.12991116786899E-04
    16 0.11065841876829E-04
    17 -.61479374474865E-05
    18 0.18875568016376E-04
    19 0.38729024791784E-05
    20 -.13058541873757E-04
    21 -.14096885667454E-03
    22 0.58807086077203E-03
    23 -.46977661444548E-04
    24 0.33475413080130E-05
    25 -.41724075183957E-04
    26 0.50116200475284E-04
    27 0.42626844877252E-04
    28 0.10703408670452E-03
    29 0.53437539001926E-05
    30 0.11654763296381E-04
    31 -.16998517196574E-04
    32 -.69906918516416E-05
    33 0.71172039139948E-05
    34 -.46925320436056E-06
    35 0.21489324759127E-05
    36 0.26693150702734E-04
    37 -.17767860228812E-03
    38 -.21443986183725E-04
    39 -.59075509943225E-04
    40 -.18758795318065E-05
    41 0.15216716044616E-03
    42 0.43754175269931E-03
    43 -.29346542637643E-03
    44 -.62910800452430E-05
    45 0.37070656608423E-04
    46 -.30779576563180E-04
    47 -.10853698083844E-04
    48 0.21246795024507E-04
    49 0.94160818560165E-07
    50 -.96609024148333E-05
    51 -.92339343810927E-04
    52 0.10100611741015E-03
    53 -.18883945602961E-04
    54 -.26124203544496E-04
    55 -.62618508113441E-04
    56 0.11131591669854E-03
    57 0.30312619111259E-03
    58 0.24977554222422E-03
    59 -.58597909307408E-05
    60 -.28433554717839E-05
    61 0.87031464025247E-05
    62 0.66756936472432E-05
    63 0.11614581740427E-04
    64 0.20477825843793E-04
    65 0.14957381549123E-03
    66 -.44305901336030E-03
    67 0.23109445826899E-04
    68 0.35318248995566E-04
    69 -.38841082484252E-04
    70 -.14499724148580E-03
    71 0.74967222741746E-03
    72 0.88395021131444E-05
    73 0.87813870194659E-04
    74 -.40343857648931E-04
    75 -.56063656762919E-04
    76 -.85059425026639E-03
    77 -.32530892564195E-04
    78 0.82047728123142E-04
    79 -.45388134751322E-04
    80 -.15708160749613E-03
    81 -.46190366803882E-03
    82 -.57589118795405E-04
    83 -.49774907293898E-05
    84 0.43816408906603E-04
    85 0.31461360221539E-05
    86 0.12138257552389E-02
    87 0.10260263278444E-04
    88 0.76347967831536E-04
    89 -.13896996963409E-03
    90 0.89628467195617E-04
    91 -.72610256666835E-03
    92 0.36205038863601E-04
    93 -.67806509786581E-04
    94 0.11513229577467E-03
 Sym=     9a   
 Ene= -.86808978317306E+00
 Spin= Alpha
 Occup= 2.000000
     1 0.12141594541183E-02
     2 -.73484452283265E-02
     3 0.65660088851873E-02
     4 0.11064154404462E-01
     5 0.11128920776672E-02
     6 -.11063615299989E-02
     7 -.10253162067077E-02
     8 0.12865967032286E-02
     9 -.11916284629640E-02
    10 -.12448681854096E-02
    11 0.40096641880709E-02
    12 -.42589817921719E-02
    13 -.35690665972434E-02
    14 -.28325745574934E-04
    15 0.13338379001241E-04
    16 0.14987366573693E-04
    17 -.80669594779825E-03
    18 -.52630394625581E-03
    19 0.62564165738499E-03
    20 0.44294590341125E-01
    21 0.89082460566239E-01
    22 0.33341197015291E-01
    23 -.15213401528487E-01
    24 -.13857296250102E-02
    25 -.14101553839019E-01
    26 -.19162709300473E-02
    27 -.42501594547457E-03
    28 0.36620269369630E-02
    29 -.48639576459390E-04
    30 -.63575067581868E-03
    31 0.68439025227807E-03
    32 -.42124178508419E-04
    33 0.50494498420037E-04
    34 0.36279302327084E-03
    35 0.26922997200508E+00
    36 0.53345882304186E+00
    37 0.26345076530869E+00
    38 -.57903909327418E-01
    39 0.70156826092197E-01
    40 0.73279995301667E-01
    41 0.26919981120333E-02
    42 -.32767910167917E-02
    43 -.41442023932780E-02
    44 -.17308531142455E-02
    45 0.76750094947456E-03
    46 0.96335216477098E-03
    47 -.12928943851952E-02
    48 -.15892019101319E-02
    49 -.30263891683595E-03
    50 0.30971692915508E-01
    51 0.61635849033381E-01
    52 0.25569441560550E-01
    53 0.19329614249916E-02
    54 -.51304512595442E-02
    55 0.12511584230054E-01
    56 0.23945858145921E-02
    57 0.31380015522327E-02
    58 -.58715936909262E-05
    59 -.19935715048073E-03
    60 0.79007628623458E-04
    61 0.12034952185727E-03
    62 0.84569907424378E-05
    63 0.16415713702042E-03
    64 0.43388330431034E-04
    65 0.48339274024542E-01
    66 0.21499920389351E-01
    67 -.33929368745330E-02
    68 -.92639325108108E-03
    69 0.31055559467165E-02
    70 0.26172630738155E-01
    71 0.13579014729697E-01
    72 0.14787402070963E-02
    73 0.47993911929332E-02
    74 -.10236113615797E-02
    75 0.19596965537871E+00
    76 -.20748225018559E-02
    77 0.93310886696584E-02
    78 -.30738470281569E-01
    79 0.97921187764967E-02
    80 0.21090926425994E-01
    81 -.24735887986520E-02
    82 0.80360596616694E-04
    83 -.29121224223515E-02
    84 -.22231799197806E-02
    85 0.20638871971626E+00
    86 0.22746954893450E-02
    87 0.11460867111971E-01
    88 0.90802501348899E-02
    89 -.31658684904112E-01
    90 0.27377309507523E-01
    91 -.27752994406393E-02
    92 0.34101566798452E-02
    93 -.16956606528784E-02
    94 -.32472102410253E-02
 Sym=    10a   
 Ene= -.84063480794874E+00
 Spin= Alpha
 Occup= 2.000000
     1 0.91036851556132E-03
     2 -.56269250203641E-02
     3 0.74503291412833E-02
     4 0.29897017305754E-02
     5 -.42889487012516E-03
     6 0.20006972042170E-04
     7 -.17289264523111E-02
     8 -.30772141626442E-03
     9 0.19457176788695E-03
    10 -.28868264349501E-02
    11 -.24555474123155E-02
    12 -.26107077412958E-03
    13 -.22756816478694E-02
    14 -.44213579517581E-03