           Doing BLAS/Lapack in the master proc. with  8 CPUs.
           SMPCPUS    set: Shared-memory Parallelization with   8 CPUs.

           SMP Parallelization Reference:
           C. van Wullen, J. Comput. Chem. 32 (2011) 1195--1201
 operating system is UNIX !

 force (c-5-17.gp.local) : TURBOMOLE V7.2 ( 21454 ) 4 Oct 2017 at 12:48:15
 Copyright (C) 2017 TURBOMOLE GmbH, Karlsruhe


    2018-03-23 00:02:47.727 



                             T U R B O M O L E   

                          a o f o r c e - program

                        using direct algorithms for

                       SCF level calculations of
                         * harmonic force constants
                         * hyperpolarizabilities
                         * IR and RAMAN intensities
                         * VCD intensities

                       DFT level calculations of
                         * harmonic force constants
                         * IR intensities
                                                   
       Stephan Boecker, Peter Deglmann, Filipp Furche and Marco Haeser
                          Quantum Chemistry Group
                          Universitaet  Karlsruhe
                                   Germany

 
 
 
 
     References :
 
       RI-J implementation:
         Peter Deglmann, Klaus May, Filipp Furche, Reinhart Ahlrichs
                 Chem. Phys. Lett. 384:103 (2004)
 
       Efficiency, technical details:
         Peter Deglmann, Filipp Furche, Reinhart Ahlrichs
                 Chem. Phys. Lett. 362:511 (2002)
 
       Search of lowest eigenvalues by iterative diagonalization:
         Peter Deglmann, Filipp Furche
                 J. Chem. Phys. 117:9535 (2002)
 
       Vibrational circular dichroism implementation:
        Kevin Reiter, Michael Kuehn, Florian Weigend
                 J. Chem. Phys. 146:054102 (2017)  
 
 


              +--------------------------------------------------+
              | Atomic coordinate, charge and isotop information |
              +--------------------------------------------------+

                    atomic coordinates            atom    charge  isotop
         -0.86768375   -2.44553561    0.00088973    c      6.000     0
         -2.57680943   -0.44585402    0.00085252    c      6.000     0
          1.67452562   -2.00865542    0.00085252    c      6.000     0
          2.55173784    0.47133163    0.00088973    c      6.000     0
          0.90228381    2.45450944    0.00085252    c      6.000     0
         -1.68405409    1.97420398    0.00088973    c      6.000     0
          3.52519600   -3.84147346    0.00019589    c      6.000     0
          2.32615811   -6.29225130    0.00030514    c      6.000     0
         -0.27611391   -6.76429037    0.00010814    n      7.000     0
         -1.93305065   -4.80168372    0.00022417    c      6.000     0
         -4.94712724   -4.19765304   -0.00052183    c      6.000     0
         -5.08941160   -1.13217256    0.00019589    c      6.000     0
         -6.61232853    1.13161363    0.00030514    c      6.000     0
         -5.71999035    3.62126685    0.00010814    n      7.000     0
         -3.19185475    4.07491283    0.00022417    c      6.000     0
         -1.16171055    6.38316439   -0.00052183    c      6.000     0
          1.56421560    4.97364602    0.00019589    c      6.000     0
          6.10883779   -2.18551134   -0.00052183    c      6.000     0
          5.12490540    0.72677089    0.00022417    c      6.000     0
          5.99610426    3.14302352    0.00010814    n      7.000     0
          4.28617042    5.16063767    0.00030514    c      6.000     0
          5.24546291    7.00193538    0.00061380    h      1.000     0
          7.28079791   -2.59414532    1.68171548    h      1.000     0
          7.27872043   -2.59330491   -1.68438304    h      1.000     0
          3.44112246   -8.04367183    0.00061380    h      1.000     0
         -8.68658537    1.04173645    0.00061380    h      1.000     0
         -5.88522815   -5.00690434   -1.68438304    h      1.000     0
         -5.88699471   -5.00828329    1.68171548    h      1.000     0
         -1.39349228    7.60020925   -1.68438304    h      1.000     0
         -1.39380320    7.60242861    1.68171548    h      1.000     0
 
       center of nuclear mass  :   -0.00000000    0.00000000    0.00025605
       center of nuclear charge:   -0.00000000    0.00000000    0.00022559

              +--------------------------------------------------+
              |               basis set information              |
              +--------------------------------------------------+

              we will work with the 1s 3p 5d 7f 9g ... basis set
              ...i.e. with spherical basis functions...

   type   atoms  prim   cont   basis
   ---------------------------------------------------------------------------
    c       18     24     14   def2-SV(P)   [3s2p1d|7s4p1d]
    n        3     24     14   def2-SV(P)   [3s2p1d|7s4p1d]
    h        9      4      2   def2-SV(P)   [2s|4s]
   ---------------------------------------------------------------------------
   total:   30    540    312
   ---------------------------------------------------------------------------

   total number of primitive shells          :   28
   total number of contracted shells         :  144
   total number of cartesian basis functions :  333
   total number of SCF-basis functions       :  312

 
             FOUND RI-J FLAG !
 

 NOTE: THIS IS A PRELIMINARY IMPLEMENTATION. THE RI APPROXIMATION IS
       PRESENTLY USED FOR CPKS CONTRIBUTIONS TO THE HESSIAN ONLY! SEE
       MANUAL FOR FURTHER DETAILS.

  
 AUXILIARY BASIS SET information:

              we will work with the 1s 3p 5d 7f 9g ... basis set
              ...i.e. with spherical basis functions...

   type   atoms  prim   cont   basis
   ---------------------------------------------------------------------------
    c       18     70     49   def2-SV(P)   [6s4p3d1f1g|12s5p4d2f1g]
    n        3     70     49   def2-SV(P)   [6s4p3d1f1g|12s5p4d2f1g]
    h        9     16     11   def2-SV(P)   [3s1p1d|5s2p1d]
   ---------------------------------------------------------------------------
   total:   30   1614   1128
   ---------------------------------------------------------------------------

   total number of primitive shells          :   56
   total number of contracted shells         :  360
   total number of cartesian basis functions : 1389
   total number of SCF-basis functions       : 1128


 symmetry group of the molecule :   c3 

 the group has the following generators :
   c3(z)

    3 symmetry operations found

 there are 2 real representations :   a    e   

 maximum number of shells which are related by symmetry :  3


 determining totally symmetric integral contributions 
    - equivalent to irreducible tensor elements - 
 which can be formed within each triple of representations :

             representation triple      contributions

              a     a     a               1
              a     e     e               2
              e     a     e               2
              e     e     a               2
              e     e     e               2


 WARNING WARNING WARNING WARNING WARNING WARNING WARNING WARNING WARNING
 !!!!!!!!!!!!!!!!!!!!!!!!!!!!!!!!!!!!!!!!!!!!!!!!!!!!!!!!!!!!!!!!!!!!!!!

 Point groups with complex reducible e representations are currently 
 NOT supported by aoforce.
 It is STRONGLY RECOMMENDED to use a lower symmetry!

 WARNING WARNING WARNING WARNING WARNING WARNING WARNING WARNING WARNING
 !!!!!!!!!!!!!!!!!!!!!!!!!!!!!!!!!!!!!!!!!!!!!!!!!!!!!!!!!!!!!!!!!!!!!!!



    mo occupation :
   irrep   mo's   occupied
    a      104       23
    e      208       46
 
 number of basis functions   :                    312
 number of occupied orbitals :                     69
 
  MOs are in ASCII format !


 reading orbital data $scfmo  from file mos
 orbital characterization : scfconv=7
 time elapsed for calculating density matrices :   0.051 sec

 number of non-frozen orbitals          :   312
 number of non-frozen occupied orbitals :    69
 Blocking parameters 
 shells:
    index      start shell   last shell  start bf    last bf    #bf 
       1             1         144             1        333    333
  
           ----------------------
               RI - INFORMATION
           ----------------------

 biggest AO integral is expected to be     4.152585025

 Threshold for integral neglect (rithr2):   0.25E-11
 Threshold for integral neglect (rithr1):   0.25E-11

 Contributions to RI integral batches: 
  neglected integral batches:                  7479
  direct contribution:                            0
  memory contribution:                  2961
 Core memory available (ricore):               500 MiB
 Core memory needed for (P|Q) and Cholesky:      6 MiB
 Core memory used for integrals:               169 MiB
 
 ****************************************
 Memory allocated for RIDFT: 174 MiB
 ****************************************
 
  
           ------------------
           density functional
           ------------------
 TPSS meta-GGA functional
 exchange:    LDA + TPSS
 correlation: LDA (PW) + TPSS

 iterations will be done with small grid
  
 spherical integration : Lebedev's spherical grid
 spherical gridsize    :                     3
    i.e. gridpoints    :                   302
 value for diffuse not defined
 radial integration    : Chebyshev 2nd kind (scaling 3)
 radial gridsize       :                     3
 integration cells     :                    10
 partition function    : becke
 partition sharpness   :                     3
  
 
 Derivatives of quadrature weights will be included
 
 grid rotated due to c3 or c6 main axis
          Overall gridpoints after grid construction =         52335
 Ordering of quadrature gridpoints disabled.
 
 
 
 
 OCCUPIED-OCCUPIED TENSOR SPACES :

          IRREP   tensor space dimension   number of roots

           a              2645                  28
           e              4232                  56
 
 OCCUPIED-VIRTUAL TENSOR SPACES :

          IRREP   tensor space dimension   number of roots

           a              5589                  28
           e             11178                  56
 
 
 
 
 CONSTRUCTING integral bounds

 setting up bound for integral derivative estimation

 increment for numerical differentiation : 0.00050000
 
 machine precision:   2.220446049250313E-016

 integral neglect threshold       :  0.10E-09
 integral storage threshold THIZE :  0.10E-04
 integral storage threshold THIME :         5

 
 
 
 PREPARING NUMERICAL INTEGRATION
 
 Remaining core memory for DFT =                  3771 MB
 
 Memory needed per atom    =                  1303 KiB
 
     i. e.                    30 atoms per loop

 Calculating ground state density on molecular grid

 Integral of ground state density: N =   137.9998178824326    


 
 
 CONSTRUCTING first deriv. of <mu|x,y,z|nu> -> Dip. deriv.
  dipole integral derivatives will be neglected if
  expon. factor <0.150150E-11
      ...terminated. cpu:       0.33       wall:       0.04
 
 
 
 
 CONSTRUCTING first deriv. of  <mu|nu>
                               <mu|h|nu>    -> RHS
              second deriv. of <mu|nu>      -> Hessian
                               <mu|h|nu>    -> Hessian
                               nucl. rep.   -> Hessian
     integrals are neglected if expon. factor <  1.501501501501502E-013
  _________________________________
 |                                 |
 |         DFTD3 V3.1 Rev 0        |
 | S.Grimme, University Bonn       |
 |         June 2014               |
 |   see standalone version        |
 |       dftd3 -h for options      |
 |_________________________________|
 
 Please cite DFT-D3 work done with this code as:
 S. Grimme, J. Antony, S. Ehrlich and H. Krieg,
 J. Chem. Phys, 132 (2010), 154104.
 If used with BJ-damping cite also
 S. Grimme, S. Ehrlich and L. Goerigk,
 J. Comput. Chem. 32 (2011), 1456-1465
 For DFT-D2 the reference is
 S. Grimme, J. Comput. Chem., 27 (2006), 1787-1799
 
      ...terminated. cpu:      10.51       wall:       2.76
 
 
 
 
 CONSTRUCTING second deriv. of 2e energy    -> Hessian
   treating Coulomb (and exchange) contribution
     integrals will be neglected if total contribution <  1.501501501501501E-009
      ...terminated. cpu:     165.56       wall:      20.72
   treating exchange-correlation contribution
      ...terminated. cpu:     128.03       wall:      15.99
 
 
 
 
 CONSTRUCTING S(i,j)xi
      ...terminated. cpu:       0.29       wall:       0.11
 
 
 
 
 CONSTRUCTING <i|x,y,z|j>*S(i,j)xi          -> Dip. deriv.
      ...terminated. cpu:       0.30       wall:       0.04
 
 
 
 
 CONSTRUCTING epsilon(i)*S(i,j)xi*S(i,j)chi -> Hessian
      ...terminated. cpu:       0.09       wall:       0.01
 
 
 
 
 CONSTRUCTING G(a,i)[S(k,l)xi]              -> RHS
              G(i,j)[S(k,l)xi]*S(i,j)chi    -> Hessian
 
         Maximum core memory set to                   4000 MB
         This corresponds to                  4713 vectors in CAO basis
      ...terminated. cpu:     799.72       wall:     100.42
 
 
 
 
 CONSTRUCTING G(mu,nu)[D(kap,lam)]xi
 
          Maximum core memory set to                   4000 MB
          Atoms treated simultaneously :                    30
      ...terminated. cpu:     309.04       wall:      39.04
 
 
 
 
 CONSTRUCTING F(a,i)xi                      -> RHS
              F(i,j)xi*S(i,j)chi            -> Hessian
 
        Maximum core memory set to                  4000 MB
        This corresponds to                  7849 vectors in CAO basis
      ...terminated. cpu:      11.96       wall:       2.27
 
 
 
 
 CONSTRUCTING epsilon(i)*S(a,i)xi           -> RHS
      ...terminated. cpu:       1.80       wall:       0.43
 
 
 
 
 SOLVING CPHF equations
 
 Residuum convergence criterium   :  1.000000000000000E-005
 
 Maximum number of Davidson iterations set to                    25
  Switching to small grid
        preparing numerical integration ....
          Overall gridpoints after grid construction =         14606

 Calculating ground state density on molecular grid

 Integral of ground state density: N =   137.9891537558906    




                       Nonorthonormal Krylov Space Iteration


 total number of roots to be determined:  84


 maximum core memory set to  4000 MB,
 corresponding to     4619 vectors in CAO basis


 maximum number of simultaneously treated vectors (including degeneracy):      140


 Iteration IRREP Converged      Max. Euclidean
                 roots          residual norm

    1       a        0        6.459948581023461D-02
            e        0        5.335619846955369D-02
 
    2       a        0        6.910726068865617D-03
            e        0        5.936417712825522D-03
 
    3       a        0        3.700366513073268D-04
            e        0        3.984480546319731D-04
 
    4       a       26        1.452344791960859D-05
            e       54        1.499028427452606D-05
 
    5       a       28        8.677118048434460D-06
            e       56        7.975222040460759D-06
 

 converged!

  Switching to fine grid
        preparing numerical integration ....
          Overall gridpoints after grid construction =         52335

 Calculating ground state density on molecular grid

 Integral of ground state density: N =   137.9998178824336    



 Iteration IRREP Converged      Max. Euclidean
                 roots          residual norm

    6       a        0        2.251003818011787D-04
            e        0        1.904185976301693D-04
 

 NOTE: Residual norms are larger than 1.00D-05 due to mgrid option!

      ...terminated. cpu:    1480.65       wall:     204.23
 
 
 
 
 CONSTRUCTING <a|x,y,z|i>*U(a,i)xi          -> Dip. deriv.
      ...terminated. cpu:       0.76       wall:       0.09
 
 
 
 
 CONSTRUCTING RHS(a,i)xi*U(a,i)chi          -> Hessian
      ...terminated. cpu:       0.80       wall:       0.11
 
 
 
 

            -----------------------
            permanent dipole moment
            -----------------------

                                   x                y                z
    electronic part       :    0.0000000000     0.0000000000    -0.0318006946
     nuclear   part       :   -0.0000000000     0.0000000000     0.0311308929
     total                :    0.0000000000     0.0000000000    -0.0006698016

 with reference to the point :   0.0000000        0.0000000        0.0000000
 (given in atomic units)
    | dipole |       :    0.0017024788  debye

   ***  dipole moment & cartesian dipole gradients written onto
        $dipole, $dipgrad,  file=<dipgrad>  ***

             -----------------------------------
             rotational and vibrational analysis
             -----------------------------------


            ==============================================================
            ATOMIC WEIGHTS (average over the natural occurance of isotops)
            ==============================================================
            ('*' denotes special isotop !)
              1     c                12.01115
              2     c                12.01115
              3     c                12.01115
              4     c                12.01115
              5     c                12.01115
              6     c                12.01115
              7     c                12.01115
              8     c                12.01115
              9     n                14.00670
             10     c                12.01115
             11     c                12.01115
             12     c                12.01115
             13     c                12.01115
             14     n                14.00670
             15     c                12.01115
             16     c                12.01115
             17     c                12.01115
             18     c                12.01115
             19     c                12.01115
             20     n                14.00670
             21     c                12.01115
             22     h                 1.00797
             23     h                 1.00797
             24     h                 1.00797
             25     h                 1.00797
             26     h                 1.00797
             27     h                 1.00797
             28     h                 1.00797
             29     h                 1.00797
             30     h                 1.00797

          -------------------------------------------------
          CARTESIAN FORCE CONSTANT MATRIX (hartree/bohr**2)
         (translational & rotational space projected out)
          -------------------------------------------------

   ATOM              1 c                           2 c 
                  dx        dy        dz        dx        dy        dz
   1 c     dx  0.9126206
           dy  0.0300216 0.8237313
           dz  0.0001000 0.0001363 0.1220769
   2 c     dx -0.2113327 0.1380437-0.0000574 0.8165681
           dy  0.1336249-0.2526152-0.0000109 0.0429987 0.8847916
           dz -0.0000458-0.0000465-0.0639946 0.0001299 0.0002084 0.1356642
   3 c     dx -0.4086898-0.0345560-0.0000276-0.0410758 0.0194749 0.0000403
           dy -0.0664123-0.1265929 0.0000392 0.0188249 0.0212048 0.0000013
           dz  0.0000424 0.0000533-0.0673110-0.0000032-0.0000230 0.0046070
   4 c     dx -0.0216020-0.0353187-0.0000067 0.0041809 0.0005009-0.0000156
           dy -0.0335598-0.0002916-0.0000204 0.0068555-0.0141154 0.0000189
           dz -0.0000245-0.0000091 0.0079270-0.0000089 0.0000216-0.0033245
   5 c     dx -0.0127267 0.0092607 0.0000232-0.0109496-0.0368682-0.0000183
           dy  0.0029061 0.0027923-0.0000031-0.0362183-0.0089214 0.0000143
           dz  0.0000242 0.0000041-0.0033245-0.0000190-0.0000356 0.0046070
   6 c     dx  0.0242061 0.0088714 0.0000044-0.1533965-0.1128376 0.0000249
           dy  0.0071125-0.0460997 0.0000257-0.0809814-0.3818861-0.0000633
           dz -0.0000143 0.0000160 0.0079270 0.0000477 0.0000043-0.0673110
   7 c     dx -0.0342120 0.0189331 0.0000129-0.0027075-0.0035786-0.0000035
           dy  0.0417202 0.0397933 0.0000120-0.0019474-0.0011291-0.0000005
           dz  0.0000031 0.0000006 0.0061830 0.0000070-0.0000028 0.0077798
   8 c     dx -0.0318352-0.0376574-0.0000129-0.0063995 0.0041373-0.0000023
           dy -0.0178936-0.0239528-0.0000201-0.0024502 0.0019800 0.0000001
           dz -0.0000140-0.0000236-0.0076453 0.0000044 0.0000026-0.0002790
   9 n     dx  0.0424561 0.0606168 0.0000066 0.0106095-0.0128503-0.0000087
           dy  0.0159641-0.0818638-0.0000336-0.0114304-0.0014057-0.0000067
           dz  0.0000009 0.0000177 0.0294710 0.0000059 0.0000007 0.0063026
  10 c     dx -0.1641866-0.1525663-0.0000402 0.0102433 0.0155685-0.0000106
           dy -0.1113907-0.3258523-0.0001225 0.0189642-0.0602787 0.0000016
           dz -0.0000047-0.0001426-0.0714180-0.0000155-0.0000219 0.0062365
  11 c     dx -0.0350988-0.0161534 0.0000023-0.0090706-0.0285697 0.0000349
           dy -0.0215283-0.0027632 0.0000329-0.0249697-0.0276183 0.0000002
           dz -0.0000438 0.0000047 0.0114072 0.0000098-0.0000304 0.0083505
  12 c     dx -0.0527358 0.0230143-0.0000071-0.3608532-0.0636873-0.0001283
           dy  0.0234359 0.0039425-0.0000264-0.1069011-0.1191524-0.0001148
           dz -0.0000256 0.0000016 0.0099064-0.0001099-0.0000715-0.0651122
  13 c     dx -0.0049131-0.0039407-0.0000020-0.0488353 0.0267060-0.0000339
           dy -0.0112077 0.0105389 0.0000009 0.0644178 0.0353525-0.0000098
           dz  0.0000054 0.0000003 0.0059438 0.0000037-0.0000371 0.0106234
  14 n     dx  0.0028100-0.0035385-0.0000027-0.0353901-0.0320361-0.0000002
           dy  0.0043603-0.0051766-0.0000026-0.0356529-0.0203793 0.0000071
           dz  0.0000046 0.0000043-0.0028787-0.0000048 0.0000066-0.0096577
  15 c     dx -0.0025607-0.0022087 0.0000013 0.0522202 0.0337742 0.0000272
           dy -0.0040409-0.0029358 0.0000015 0.0034962-0.0474658-0.0000003
           dz  0.0000045 0.0000003 0.0080985-0.0000003 0.0000120 0.0091968
  16 c     dx  0.0004267 0.0002836-0.0000003-0.0028027 0.0017059 0.0000040
           dy -0.0009541-0.0004565 0.0000026 0.0024216-0.0029522 0.0000042
           dz  0.0000049 0.0000000-0.0006909-0.0000080 0.0000009 0.0071099
  17 c     dx  0.0018107-0.0036569 0.0000038-0.0077232 0.0083824 0.0000031
           dy  0.0023627-0.0036371-0.0000016-0.0002136 0.0098456 0.0000040
           dz -0.0000021-0.0000023-0.0006591-0.0000034-0.0000036 0.0045832
  18 c     dx -0.0013462 0.0013798 0.0000062-0.0006114-0.0006907 0.0000051
           dy  0.0023862-0.0032631-0.0000010 0.0006926 0.0008592-0.0000036
           dz -0.0000040-0.0000059 0.0087806 0.0000079-0.0000037 0.0000964
  19 c     dx  0.0106713-0.0024629 0.0000008-0.0037416 0.0038516 0.0000010
           dy  0.0042232-0.0086065-0.0000015-0.0027564 0.0022469 0.0000000
           dz -0.0000079-0.0000040 0.0046877 0.0000057-0.0000041-0.0007775
  20 n     dx  0.0010703-0.0026149-0.0000022-0.0005728 0.0024545 0.0000018
           dy -0.0075368 0.0038794-0.0000026 0.0049750-0.0072334-0.0000024
           dz -0.0000056-0.0000035-0.0010309 0.0000045-0.0000081 0.0005496
  21 c     dx -0.0046122 0.0043536 0.0000010 0.0033167-0.0083514 0.0000002
           dy  0.0026530-0.0021275-0.0000006-0.0024599 0.0032814-0.0000038
           dz  0.0000002-0.0000040 0.0002416-0.0000002-0.0000038 0.0000664
  22 h     dx -0.0000219 0.0001349 0.0000003-0.0006142 0.0001494 0.0000005
           dy -0.0000232 0.0000013 0.0000002-0.0000289 0.0000366 0.0000001
           dz  0.0000001 0.0000003 0.0001526-0.0000002-0.0000009-0.0004567
  23 h     dx -0.0004816 0.0004616 0.0016161-0.0000855-0.0002250 0.0000735
           dy  0.0002889 0.0006155 0.0012452-0.0000141-0.0002557 0.0000376
           dz  0.0001456-0.0000854-0.0004886 0.0000557-0.0000001 0.0000360
  24 h     dx -0.0004814 0.0004613-0.0016175-0.0000850-0.0002259-0.0000761
           dy  0.0002896 0.0006150-0.0012453-0.0000140-0.0002558-0.0000391
           dz -0.0001459 0.0000852-0.0004868-0.0000541-0.0000002 0.0000371
  25 h     dx -0.0003591-0.0002493 0.0000010 0.0000827 0.0002237 0.0000001
           dy -0.0007180 0.0001656 0.0000009 0.0000107 0.0000389-0.0000007
           dz  0.0000024-0.0000009-0.0013397 0.0000006 0.0000016-0.0017012
  26 h     dx -0.0005372-0.0006303-0.0000002-0.0008148 0.0033258 0.0000025
           dy  0.0012312 0.0008911 0.0000012 0.0033559-0.0049258 0.0000005
           dz  0.0000004 0.0000016-0.0003819 0.0000042-0.0000008 0.0081747
  27 h     dx -0.0040830-0.0001040 0.0014549-0.0007948 0.0012137-0.0008904
           dy  0.0014924-0.0002615-0.0016963 0.0001708-0.0040639 0.0005794
           dz  0.0003388 0.0003812-0.0006133 0.0004638 0.0005140-0.0003453
  28 h     dx -0.0040820-0.0001001-0.0014576-0.0007947 0.0012171 0.0008855
           dy  0.0014975-0.0002589 0.0016913 0.0001790-0.0040671-0.0005852
           dz -0.0003402-0.0003798-0.0006138-0.0004644-0.0005139-0.0003461
  29 h     dx -0.0000872-0.0000389 0.0000563 0.0007151 0.0003061-0.0010629
           dy -0.0001524-0.0001056 0.0000355 0.0003156-0.0004591-0.0012595
           dz -0.0000065-0.0000268 0.0000371 0.0000369-0.0001808-0.0003575
  30 h     dx -0.0000865-0.0000392-0.0000565 0.0007150 0.0003052 0.0010621
           dy -0.0001526-0.0001057-0.0000368 0.0003158-0.0004573 0.0012586
           dz  0.0000071 0.0000270 0.0000368-0.0000382 0.0001807-0.0003580

   ATOM              3 c                           4 c 
                  dx        dy        dz        dx        dy        dz
   3 c     dx  0.9049737
           dy  0.0080423 0.7963860
           dz -0.0002454 0.0000083 0.1356642
   4 c     dx -0.1246586-0.0880024 0.0000632 0.8719530
           dy -0.0835835-0.3392893-0.0000164-0.0535010 0.8643988
           dz  0.0000382-0.0000443-0.0639946-0.0001681 0.0000185 0.1220769
   5 c     dx  0.0222190 0.0177183-0.0000213-0.2408377 0.1633217-0.0000202
           dy  0.0170684-0.0420900 0.0000342 0.1314655-0.2944450-0.0000435
           dz  0.0000215 0.0000087 0.0046070-0.0000673 0.0000101-0.0673110
   6 c     dx -0.0063559-0.0129389-0.0000086-0.0354445 0.0255679 0.0000210
           dy -0.0065843-0.0035786-0.0000230 0.0273268 0.0135509 0.0000044
           dz -0.0000143-0.0000185-0.0033245 0.0000201-0.0000166 0.0079270
   7 c     dx -0.2534446 0.1689136 0.0001635 0.0098865 0.0127191 0.0000264
           dy  0.1256997-0.2265611-0.0000537 0.0131407-0.0586798 0.0000071
           dz  0.0001169-0.0000595-0.0651122 0.0000114-0.0000230 0.0099064
   8 c     dx  0.0537634-0.0051825 0.0000254 0.0001164 0.0141115 0.0000002
           dy  0.0325293-0.0672461-0.0000245 0.0068445 0.0055093-0.0000022
           dz  0.0000303 0.0000217 0.0106234-0.0000029 0.0000045 0.0059438
   9 n     dx -0.0534422 0.0252305-0.0000060-0.0028241-0.0076131 0.0000036
           dy  0.0216137-0.0023272-0.0000037 0.0002856 0.0004575-0.0000010
           dz -0.0000033-0.0000074-0.0096577-0.0000061 0.0000018-0.0028787
  10 c     dx -0.0064057-0.0373439-0.0000134-0.0055482 0.0023161-0.0000020
           dy -0.0676219 0.0111602 0.0000237 0.0004839 0.0000517 0.0000004
           dz -0.0000102-0.0000062 0.0091968-0.0000025 0.0000037 0.0080985
  11 c     dx -0.0011275-0.0014544-0.0000056-0.0005260 0.0004040-0.0000021
           dy -0.0007387-0.0046273 0.0000014-0.0008336 0.0004962-0.0000016
           dz  0.0000032-0.0000074 0.0071099-0.0000024 0.0000042-0.0006909
  12 c     dx  0.0089906 0.0098633-0.0000050-0.0028355-0.0050452-0.0000005
           dy  0.0012673-0.0068682 0.0000007 0.0009744 0.0010091 0.0000041
           dz  0.0000048-0.0000011 0.0045832 0.0000031-0.0000007-0.0006591
  13 c     dx -0.0013912-0.0002582 0.0000032 0.0002853 0.0001745 0.0000001
           dy  0.0056333 0.0079893 0.0000021-0.0015260-0.0070250 0.0000012
           dz  0.0000034 0.0000017 0.0000664 0.0000034 0.0000022 0.0002416
  14 n     dx -0.0023512-0.0060018 0.0000011-0.0012187 0.0062153 0.0000034
           dy -0.0034812-0.0054551 0.0000027 0.0012934 0.0061684-0.0000006
           dz  0.0000048 0.0000080 0.0005496 0.0000059-0.0000031-0.0010309
  15 c     dx  0.0012239 0.0056233-0.0000005-0.0030248-0.0121307 0.0000009
           dy -0.0009847-0.0027187 0.0000009-0.0054446 0.0050896 0.0000014
           dz  0.0000007 0.0000070-0.0007775 0.0000074-0.0000048 0.0046877
  16 c     dx  0.0004924-0.0000553 0.0000006-0.0011532-0.0022748-0.0000023
           dy  0.0013280-0.0002446 0.0000062-0.0012683-0.0034562 0.0000058
           dz -0.0000008 0.0000087 0.0000964 0.0000071-0.0000005 0.0087806
  17 c     dx -0.0039165 0.0012494 0.0000021 0.0475556 0.0054884-0.0000169
           dy  0.0028806 0.0000799-0.0000028 0.0282755-0.0419743 0.0000052
           dz -0.0000011 0.0000075 0.0077798-0.0000021 0.0000024 0.0061830
  18 c     dx -0.0461646 0.0035534-0.0000176-0.0271638 0.0261096-0.0000296
           dy  0.0071535 0.0094757 0.0000301 0.0207347-0.0106983-0.0000145
           dz  0.0000215 0.0000237 0.0083505 0.0000178-0.0000403 0.0114072
  19 c     dx -0.0276951-0.0408679 0.0000039-0.3997326-0.0246019 0.0001262
           dy -0.0374722-0.0223403-0.0000100 0.0165738-0.0903063 0.0000264
           dz  0.0000267-0.0000025 0.0062365 0.0001258 0.0000672-0.0714180
  20 n     dx -0.0089157 0.0001575 0.0000101-0.0176233-0.0506510 0.0000258
           dy  0.0015774 0.0181196-0.0000042-0.0953037-0.0217844 0.0000225
           dz -0.0000035 0.0000048 0.0063026-0.0000158-0.0000080 0.0294710
  21 c     dx  0.0006157 0.0065004 0.0000010-0.0499777 0.0074190 0.0000238
           dy -0.0000871-0.0050352-0.0000020 0.0271828-0.0058103-0.0000011
           dz -0.0000044 0.0000025-0.0002790 0.0000275-0.0000003-0.0076453
  22 h     dx  0.0001513 0.0000290 0.0000006-0.0003845 0.0007034-0.0000012
           dy -0.0001841-0.0000297 0.0000005 0.0002347 0.0001909 0.0000004
           dz -0.0000017-0.0000003-0.0017012-0.0000005 0.0000025-0.0013397
  23 h     dx -0.0026444-0.0012470 0.0000641-0.0006096 0.0005073-0.0007359
           dy -0.0022850-0.0022173 0.0010595 0.0021049-0.0037313-0.0021079
           dz  0.0006773-0.0001452-0.0003461 0.0004990-0.0001047-0.0006138
  24 h     dx -0.0026471-0.0012403-0.0000566-0.0006157 0.0005095 0.0007416
           dy -0.0022831-0.0022115-0.0010608 0.0021059-0.0037288 0.0021082
           dz -0.0006771 0.0001447-0.0003453-0.0004995 0.0001028-0.0006133
  25 h     dx -0.0010048-0.0034656-0.0000017 0.0007942-0.0004625-0.0000009
           dy -0.0034355-0.0047359 0.0000019 0.0013990-0.0004403-0.0000008
           dz -0.0000014 0.0000040 0.0081747-0.0000016-0.0000004-0.0003819
  26 h     dx -0.0000739 0.0003408-0.0000003 0.0000439 0.0000612-0.0000003
           dy  0.0001626-0.0005037 0.0000004-0.0000970-0.0000645 0.0000002
           dz  0.0000008 0.0000003-0.0004567-0.0000003-0.0000001 0.0001526
  27 h     dx  0.0001037-0.0006686 0.0016223-0.0001838 0.0000966-0.0000589
           dy -0.0006591 0.0001523-0.0002907-0.0000169-0.0000090 0.0000310
           dz  0.0001381 0.0001224-0.0003575 0.0000265 0.0000078 0.0000371
  28 h     dx  0.0001046-0.0006682-0.0016211-0.0001839 0.0000964 0.0000601
           dy -0.0006576 0.0001530 0.0002905-0.0000171-0.0000083-0.0000305
           dz -0.0001373-0.0001234-0.0003580-0.0000269-0.0000074 0.0000368
  29 h     dx -0.0003170-0.0001199 0.0000719 0.0006661 0.0003729 0.0018872
           dy  0.0000919-0.0000238-0.0000464 0.0002011-0.0005324-0.0007782
           dz  0.0000273-0.0000467 0.0000371-0.0000008-0.0001689-0.0004868
  30 h     dx -0.0003167-0.0001194-0.0000693 0.0006662 0.0003738-0.0018865
           dy  0.0000915-0.0000245 0.0000448 0.0002011-0.0005323 0.0007770
           dz -0.0000277 0.0000483 0.0000360 0.0000012 0.0001688-0.0004886

   ATOM              5 c                           6 c 
                  dx        dy        dz        dx        dy        dz
   5 c     dx  0.8304977
           dy -0.0510410 0.8708620
           dz  0.0001155-0.0002167 0.1356642
   6 c     dx -0.3599305-0.0522508-0.0000173 0.8199542
           dy -0.0478319-0.1040174 0.0000629 0.0234794 0.9163977
           dz  0.0000193 0.0000552-0.0639946 0.0000681-0.0001548 0.1220769
   7 c     dx  0.0019162-0.0053517 0.0000019-0.0017148-0.0003273-0.0000033
           dy -0.0139477 0.0002062-0.0000046 0.0056923-0.0001116-0.0000025
           dz -0.0000014 0.0000047 0.0045832-0.0000009 0.0000030-0.0006591
   8 c     dx  0.0079717-0.0002276-0.0000034-0.0057826-0.0019773-0.0000011
           dy  0.0056639-0.0013735 0.0000018-0.0036778-0.0009571-0.0000005
           dz -0.0000032 0.0000021 0.0000664-0.0000036 0.0000018 0.0002416
   9 n     dx -0.0087853-0.0002335-0.0000029 0.0075730 0.0037825-0.0000011
           dy  0.0022870 0.0009791-0.0000004-0.0011394-0.0026233 0.0000032
           dz -0.0000093 0.0000001 0.0005496-0.0000003 0.0000066-0.0010309
  10 c     dx  0.0002755 0.0004371-0.0000005-0.0045493 0.0045644-0.0000017
           dy -0.0061709-0.0017703-0.0000009 0.0112505 0.0066141 0.0000001
           dz -0.0000064-0.0000029-0.0007775 0.0000004 0.0000088 0.0046877
  11 c     dx  0.0004908-0.0013289-0.0000057-0.0044147-0.0006147-0.0000039
           dy  0.0000544-0.0002429-0.0000026 0.0003917-0.0001947-0.0000049
           dz -0.0000071-0.0000050 0.0000964-0.0000032 0.0000064 0.0087806
  12 c     dx  0.0008691-0.0001176 0.0000013-0.0049717-0.0586021 0.0000039
           dy  0.0015136-0.0047057 0.0000032-0.0358150 0.0105529-0.0000172
           dz -0.0000059-0.0000046 0.0077798-0.0000011-0.0000030 0.0061830
  13 c     dx -0.0008454-0.0007565 0.0000012-0.0018691 0.0005927-0.0000110
           dy -0.0073440-0.0035741 0.0000019 0.0203565-0.0539189 0.0000212
           dz  0.0000000-0.0000051-0.0002790-0.0000135 0.0000239-0.0076453
  14 n     dx  0.0121119 0.0105630-0.0000014-0.0839443 0.0570132-0.0000324
           dy  0.0119829-0.0029081 0.0000109 0.0123605 0.0445367 0.0000111
           dz -0.0000024-0.0000055 0.0063026 0.0000149-0.0000097 0.0294710
  15 c     dx -0.0576013 0.0202059 0.0000067-0.1711391 0.1154047-0.0000860
           dy  0.0236016 0.0075659 0.0000084 0.1565804-0.3188998 0.0000961
           dz -0.0000112 0.0000244 0.0062365-0.0001211 0.0000753-0.0714180
  16 c     dx  0.0002019 0.0196162-0.0000173 0.0054695-0.0018939 0.0000274
           dy  0.0232163-0.0368907-0.0000303-0.0072687-0.0433316-0.0000184
           dz -0.0000313 0.0000067 0.0083505 0.0000260 0.0000356 0.0114072
  17 c     dx -0.1057107-0.0404055-0.0000352-0.0303406-0.0363658-0.0000193
           dy -0.0836194-0.3742950 0.0001685-0.0359442-0.0184527 0.0000193
           dz -0.0000069 0.0001310-0.0651122 0.0000142 0.0000214 0.0099064
  18 c     dx -0.0047021-0.0013250 0.0000016 0.0000547 0.0011688 0.0000024
           dy -0.0006093-0.0010528-0.0000056-0.0000688-0.0000845-0.0000010
           dz  0.0000048 0.0000065 0.0071099-0.0000024-0.0000042-0.0006909
  19 c     dx -0.0386828 0.0489867-0.0000139-0.0001359 0.0026410 0.0000007
           dy  0.0187087 0.0434373-0.0000234 0.0008087-0.0053607-0.0000019
           dz  0.0000105-0.0000057 0.0091968-0.0000020-0.0000040 0.0080985
  20 n     dx  0.0051782 0.0122308 0.0000062-0.0035358-0.0006966-0.0000009
           dy  0.0086140-0.0609476-0.0000034 0.0072022 0.0011692 0.0000037
           dz  0.0000081 0.0000008-0.0096577 0.0000014-0.0000062-0.0028787
  21 c     dx -0.0251522-0.0780912 0.0000085 0.0132353 0.0007297 0.0000018
           dy -0.0403795 0.0116695 0.0000343-0.0065373-0.0076096 0.0000013
           dz -0.0000340 0.0000154 0.0106234-0.0000024-0.0000048 0.0059438
  22 h     dx -0.0067913 0.0000946-0.0000008 0.0002738-0.0016994 0.0000011
           dy  0.0001247 0.0010507-0.0000024 0.0001621 0.0000801-0.0000004
           dz -0.0000027-0.0000032 0.0081747 0.0000011-0.0000011-0.0003819
  23 h     dx -0.0004332 0.0003471 0.0005589-0.0000179 0.0001130-0.0000037
           dy  0.0003577 0.0006908-0.0015491-0.0000005-0.0001743 0.0000673
           dz  0.0001756-0.0000572-0.0003580 0.0000199-0.0000196 0.0000368
  24 h     dx -0.0004348 0.0003483-0.0005593-0.0000182 0.0001125 0.0000026
           dy  0.0003578 0.0006908 0.0015503-0.0000009-0.0001746-0.0000665
           dz -0.0001750 0.0000584-0.0003575-0.0000200 0.0000190 0.0000371
  25 h     dx -0.0001783-0.0002228-0.0000002-0.0000529 0.0000411 0.0000000
           dy -0.0004011-0.0003993-0.0000005-0.0001170 0.0000323-0.0000004
           dz -0.0000007 0.0000006-0.0004567 0.0000002-0.0000002 0.0001526
  26 h     dx -0.0000516 0.0000669-0.0000007 0.0004533 0.0002490 0.0000003
           dy -0.0001461 0.0001732 0.0000002-0.0002197-0.0006468-0.0000013
           dz  0.0000011-0.0000013-0.0017012-0.0000020-0.0000017-0.0013397
  27 h     dx -0.0001092 0.0000280 0.0000042 0.0000158-0.0005766-0.0002697
           dy  0.0002399-0.0002316 0.0000855-0.0007484 0.0001179 0.0020235
           dz  0.0000268 0.0000470 0.0000371 0.0001467 0.0000838-0.0004868
  28 h     dx -0.0001097 0.0000280-0.0000042 0.0000163-0.0005763 0.0002703
           dy  0.0002389-0.0002316-0.0000824-0.0007490 0.0001176-0.0020222
           dz -0.0000279-0.0000482 0.0000360-0.0001468-0.0000834-0.0004886
  29 h     dx -0.0038461 0.0015909 0.0009470-0.0018181-0.0028001-0.0021965
           dy  0.0005480-0.0010126 0.0004814-0.0012037-0.0025264-0.0004119
           dz  0.0002133-0.0006587-0.0003453 0.0001607-0.0004840-0.0006133
  30 h     dx -0.0038535 0.0015870-0.0009496-0.0018198-0.0028036 0.0021935
           dy  0.0005489-0.0010082-0.0004742-0.0012060-0.0025211 0.0004166
           dz -0.0002129 0.0006592-0.0003461-0.0001589 0.0004845-0.0006138

   ATOM              7 c                           8 c 
                  dx        dy        dz        dx        dy        dz
   7 c     dx  0.5115324
           dy -0.0863277 0.6075884
           dz -0.0001140 0.0000744 0.1518164
   8 c     dx -0.1290238-0.0146687 0.0000300 0.4849793
           dy -0.0563526-0.2174713 0.0000073-0.1179178 0.6350623
           dz  0.0000351-0.0000120-0.0593572 0.0000394-0.0001005 0.1483522
   9 n     dx -0.0200685-0.0850036-0.0000048-0.1922635 0.0093091-0.0000551
           dy -0.0286661 0.0102464-0.0000007-0.0196638-0.0993611 0.0000552
           dz  0.0000020-0.0000118 0.0148275-0.0000546 0.0000450-0.0621682
  10 c     dx  0.0099124 0.0159274-0.0000027-0.0624298 0.0288756 0.0000118
           dy  0.0027549-0.0522954-0.0000007 0.0681906 0.0214636-0.0000170
           dz -0.0000072-0.0000020-0.0091556 0.0000140 0.0000193-0.0001393
  11 c     dx -0.0010110-0.0021861 0.0000030 0.0064536-0.0017671 0.0000033
           dy  0.0004708-0.0003885 0.0000039 0.0005444-0.0026018 0.0000072
           dz -0.0000060 0.0000049 0.0002434 0.0000083-0.0000067 0.0078478
  12 c     dx -0.0008026-0.0009156-0.0000057 0.0022809 0.0020188-0.0000073
           dy  0.0000395 0.0019093 0.0000002-0.0013221-0.0025690-0.0000056
           dz -0.0000102 0.0000035-0.0004430 0.0000004-0.0000036 0.0002455
  13 c     dx -0.0004568 0.0004327 0.0000060-0.0003112-0.0010808 0.0000060
           dy  0.0003107-0.0028695 0.0000004 0.0040114 0.0024202-0.0000004
           dz -0.0000112 0.0000022-0.0005790 0.0000023-0.0000027 0.0002607
  14 n     dx -0.0004702 0.0035050-0.0000007-0.0031821-0.0019495-0.0000040
           dy -0.0006994 0.0023284-0.0000001-0.0024228-0.0023689-0.0000045
           dz -0.0000123-0.0000030 0.0002373-0.0000007 0.0000010-0.0001292
  15 c     dx  0.0008692-0.0034570-0.0000026 0.0027035 0.0023070-0.0000019
           dy  0.0001991 0.0016979-0.0000025-0.0016606-0.0004663-0.0000020
           dz -0.0000069-0.0000031-0.0006302-0.0000019 0.0000002 0.0000780
  16 c     dx -0.0001943-0.0002929-0.0000052 0.0000622 0.0002353-0.0000073
           dy  0.0000548-0.0001718 0.0000099 0.0001319 0.0000026 0.0000130
           dz -0.0000014-0.0000039-0.0001726-0.0000006 0.0000051-0.0000097
  17 c     dx  0.0008520 0.0018709 0.0000021-0.0019444-0.0012916 0.0000036
           dy  0.0009157 0.0002547-0.0000106-0.0011696-0.0013818-0.0000108
           dz  0.0000027-0.0000050-0.0004430-0.0000033 0.0000051-0.0005790
  18 c     dx -0.0772695 0.0151916-0.0000685-0.0014183-0.0064031-0.0000117
           dy -0.0093746-0.0675807-0.0000074-0.0101616 0.0036206 0.0000038
           dz -0.0001154-0.0000038-0.0722697-0.0000036-0.0000049-0.0052172
  19 c     dx  0.0036398-0.0104294-0.0000099-0.0080648 0.0008995 0.0000028
           dy -0.0156664-0.0187621-0.0000116-0.0019845-0.0010261 0.0000065
           dz  0.0000098 0.0000197-0.0002353-0.0000005 0.0000009-0.0015015
  20 n     dx -0.0017091 0.0053189 0.0000011 0.0004923-0.0015452-0.0000038
           dy  0.0043551-0.0077228-0.0000050 0.0043935 0.0049078-0.0000039
           dz  0.0000139-0.0000077-0.0003776-0.0000040 0.0000063 0.0014839
  21 c     dx -0.0010548-0.0039447 0.0000029 0.0030063 0.0029961 0.0000012
           dy -0.0006038 0.0007668 0.0000021-0.0020960-0.0008974 0.0000034
           dz  0.0000085-0.0000036 0.0002455-0.0000027 0.0000054 0.0002607
  22 h     dx -0.0000598 0.0002140 0.0000004 0.0001018-0.0000748 0.0000003
           dy  0.0001135-0.0003262 0.0000001-0.0000371 0.0001507 0.0000008
           dz  0.0000007-0.0000003 0.0001680-0.0000003 0.0000007-0.0002397
  23 h     dx -0.0129725 0.0023848-0.0160117 0.0001929 0.0011807-0.0002809
           dy -0.0085862 0.0031560-0.0142492-0.0001923 0.0006079 0.0000212
           dz  0.0024000-0.0015630 0.0041894-0.0001615 0.0005403 0.0001132
  24 h     dx -0.0129905 0.0023767 0.0160392 0.0001930 0.0011804 0.0002875
           dy -0.0085945 0.0031429 0.0142731-0.0001935 0.0006073-0.0000202
           dz -0.0023778 0.0015633 0.0041718 0.0001601-0.0005422 0.0001129
  25 h     dx  0.0116899-0.0114699 0.0000013-0.1178337 0.1197791-0.0000335
           dy  0.0139109-0.0165091 0.0000002 0.1225007-0.2552809 0.0000679
           dz -0.0000045-0.0000069 0.0050161-0.0000256 0.0000706-0.0379787
  26 h     dx -0.0000488 0.0000019-0.0000005-0.0000551 0.0000008-0.0000002
           dy  0.0001220 0.0000932-0.0000003 0.0000386 0.0000130-0.0000004
           dz -0.0000012 0.0000001 0.0000194 0.0000005-0.0000001-0.0000462
  27 h     dx -0.0000164 0.0003863-0.0000910-0.0008649-0.0005930 0.0016227
           dy  0.0001496-0.0002407 0.0000507 0.0002092 0.0003014-0.0005337
           dz  0.0000154 0.0001585 0.0000073-0.0002721-0.0000951-0.0001705
  28 h     dx -0.0000167 0.0003866 0.0000918-0.0008641-0.0005920-0.0016219
           dy  0.0001509-0.0002387-0.0000537 0.0002105 0.0003011 0.0005278
           dz -0.0000173-0.0001572 0.0000085 0.0002714 0.0000936-0.0001696
  29 h     dx -0.0000276 0.0001699-0.0000787-0.0000229-0.0001158-0.0000006
           dy  0.0000081-0.0000624 0.0000154 0.0000283 0.0000035-0.0000013
           dz -0.0000006 0.0000067 0.0000167-0.0000033-0.0000141 0.0000013
  30 h     dx -0.0000270 0.0001710 0.0000824-0.0000213-0.0001153 0.0000035
           dy  0.0000075-0.0000628-0.0000189 0.0000273 0.0000030-0.0000036
           dz -0.0000002-0.0000077 0.0000148 0.0000023 0.0000147-0.0000008

   ATOM              9 n                          10 c 
                  dx        dy        dz        dx        dy        dz
   9 n     dx  0.4264662
           dy -0.0879169 0.3873587
           dz  0.0000218 0.0000165 0.0929010
  10 c     dx -0.1684666 0.0715043 0.0000279 0.4935632
           dy  0.0834418-0.2228427-0.0000648 0.0386555 0.7058324
           dz  0.0000433-0.0000434-0.0617017 0.0000212 0.0001890 0.1737758
  11 c     dx -0.0101185 0.0164490 0.0000145-0.0683529-0.0333681-0.0000170
           dy  0.0147273 0.0067671 0.0000240-0.0050920-0.0727858 0.0000260
           dz  0.0000067 0.0000087-0.0096337 0.0000092 0.0000046-0.0736845
  12 c     dx -0.0104083-0.0002964-0.0000136-0.0018618 0.0136058 0.0000122
           dy  0.0006674 0.0009765-0.0000082 0.0188428-0.0132605-0.0000183
           dz -0.0000048 0.0000015-0.0003776-0.0000051 0.0000144-0.0002353
  13 c     dx  0.0025706 0.0003453 0.0000074-0.0023160-0.0042186 0.0000010
           dy -0.0055934 0.0028295 0.0000003-0.0013346-0.0067749 0.0000000
           dz -0.0000015 0.0000053 0.0014839 0.0000043-0.0000056-0.0015015
  14 n     dx  0.0033819-0.0015159-0.0000043-0.0016952 0.0026693-0.0000048
           dy  0.0046344-0.0010649-0.0000008-0.0012976 0.0008182-0.0000029
           dz -0.0000068 0.0000052-0.0006381 0.0000029-0.0000059 0.0008753
  15 c     dx -0.0032019 0.0006946 0.0000017 0.0020879-0.0003210 0.0000045
           dy  0.0006715-0.0012543-0.0000009 0.0002579 0.0003587-0.0000008
           dz -0.0000026 0.0000046-0.0003544 0.0000020-0.0000042-0.0002733
  16 c     dx -0.0002159-0.0000641-0.0000043-0.0000573 0.0002712-0.0000007
           dy -0.0001216-0.0001016 0.0000131-0.0001161-0.0001999 0.0000057
           dz  0.0000013 0.0000025 0.0000383 0.0000056-0.0000042-0.0002222
  17 c     dx  0.0028436-0.0015918 0.0000088 0.0000800 0.0030014 0.0000062
           dy  0.0026126-0.0009854-0.0000091-0.0006547 0.0024872-0.0000044
           dz  0.0000004-0.0000006 0.0002373 0.0000035-0.0000010-0.0006302
  18 c     dx  0.0075775 0.0016393 0.0000066-0.0021806 0.0033473 0.0000037
           dy  0.0003908-0.0027323-0.0000001 0.0007596-0.0005733-0.0000007
           dz  0.0000073-0.0000040 0.0066796-0.0000029 0.0000039-0.0005266
  19 c     dx  0.0007838-0.0012380 0.0000037 0.0007636-0.0004436 0.0000027
           dy  0.0027289-0.0016608 0.0000055-0.0010225 0.0016829 0.0000038
           dz  0.0000049-0.0000027 0.0008753-0.0000015 0.0000043-0.0002733
  20 n     dx  0.0013972 0.0003700-0.0000011-0.0011497 0.0004903-0.0000027
           dy -0.0057803 0.0009199-0.0000084 0.0005134-0.0033066-0.0000046
           dz  0.0000028-0.0000033-0.0006381-0.0000001 0.0000019-0.0003544
  21 c     dx -0.0044655 0.0012085-0.0000006 0.0006060-0.0035180 0.0000008
           dy  0.0016818-0.0010855-0.0000011 0.0004496 0.0016311-0.0000017
           dz  0.0000059-0.0000012-0.0001292 0.0000027-0.0000007 0.0000780
  22 h     dx  0.0000416 0.0000210 0.0000008-0.0000083-0.0000107 0.0000005
           dy -0.0000898-0.0000904 0.0000009 0.0000365-0.0000051 0.0000007
           dz  0.0000000 0.0000003 0.0001423 0.0000000-0.0000008 0.0001237
  23 h     dx -0.0006922-0.0000739 0.0008450 0.0002088-0.0001628-0.0000046
           dy -0.0005604 0.0002412 0.0007798-0.0000172-0.0004132-0.0000273
           dz -0.0002681-0.0000611-0.0001588 0.0001212-0.0001640 0.0000223
  24 h     dx -0.0006917-0.0000746-0.0008468 0.0002103-0.0001636 0.0000024
           dy -0.0005615 0.0002408-0.0007830-0.0000158-0.0004142 0.0000251
           dz  0.0002693 0.0000604-0.0001567-0.0001224 0.0001649 0.0000236
  25 h     dx -0.0315599 0.0205236-0.0000041-0.0047516 0.0005604-0.0000033
           dy -0.0035196 0.0087188-0.0000031-0.0032110 0.0023972 0.0000019
           dz -0.0000097-0.0000026-0.0042273 0.0000028-0.0000006 0.0094543
  26 h     dx -0.0000291 0.0001005 0.0000003-0.0002465 0.0000640 0.0000005
           dy -0.0000697-0.0000069-0.0000002 0.0002341-0.0000192 0.0000001
           dz -0.0000010 0.0000006 0.0000619 0.0000006-0.0000006 0.0001060
  27 h     dx  0.0006100 0.0003100-0.0010112-0.0117860-0.0100955-0.0210334
           dy -0.0003047-0.0001109-0.0001493 0.0018559 0.0032029 0.0079267
           dz -0.0001615-0.0003745 0.0000867 0.0018506 0.0021051 0.0040934
  28 h     dx  0.0006088 0.0003087 0.0010098-0.0117809-0.0101281 0.0209998
           dy -0.0003032-0.0001117 0.0001412 0.0018627 0.0032065-0.0079285
           dz  0.0001614 0.0003745 0.0000906-0.0018639-0.0021195 0.0041035
  29 h     dx  0.0001557 0.0000230-0.0000098-0.0000899-0.0000685 0.0000415
           dy  0.0000139-0.0000535-0.0000130 0.0000056-0.0000577 0.0000425
           dz  0.0000041 0.0000058 0.0000025 0.0000011-0.0000048 0.0000093
  30 h     dx  0.0001575 0.0000231 0.0000120-0.0000883-0.0000692-0.0000416
           dy  0.0000124-0.0000536 0.0000079 0.0000047-0.0000570-0.0000451
           dz -0.0000047-0.0000051 0.0000008-0.0000006 0.0000041 0.0000088

   ATOM             11 c                          12 c 
                  dx        dy        dz        dx        dy        dz
  11 c     dx  0.3741242
           dy  0.1426731 0.3338906
           dz -0.0000742-0.0001868 0.5529158
  12 c     dx -0.0725217-0.0179327 0.0000544 0.6583364
           dy  0.0066335-0.0723285 0.0001018 0.0015704 0.4607845
           dz  0.0000278 0.0000630-0.0722697 0.0001214 0.0000615 0.1518164
  13 c     dx  0.0095336 0.0000800-0.0000024-0.1646063 0.0768962-0.0000087
           dy  0.0038385-0.0073313 0.0000056 0.0352123-0.1818888-0.0000296
           dz  0.0000091 0.0000082-0.0052172-0.0000280-0.0000244-0.0593572
  14 n     dx -0.0010340 0.0033325-0.0000071 0.0518881-0.0128781 0.0000018
           dy  0.0045810 0.0058791-0.0000043 0.0434594-0.0617102 0.0000045
           dz -0.0000034-0.0000057 0.0066796-0.0000112 0.0000041 0.0148275
  15 c     dx -0.0027535-0.0030166 0.0000048-0.0448331 0.0288524 0.0000008
           dy -0.0004289-0.0000004 0.0000006 0.0156799 0.0024501 0.0000027
           dz -0.0000025-0.0000028-0.0005266 0.0000019 0.0000073-0.0091556
  16 c     dx  0.0002332-0.0000495-0.0000018 0.0001986-0.0011692 0.0000019
           dy -0.0001125-0.0000884 0.0000000 0.0014877-0.0015981-0.0000046
           dz -0.0000043-0.0000111-0.0018876 0.0000072 0.0000027 0.0002434
  17 c     dx -0.0002805 0.0002431 0.0000041 0.0016106-0.0014328 0.0000030
           dy -0.0001046-0.0000856 0.0000007-0.0004777-0.0005040 0.0000049
           dz -0.0000060-0.0000095-0.0001726 0.0000081 0.0000071-0.0004430
  18 c     dx -0.0000781-0.0001303 0.0000118-0.0000743-0.0001241 0.0000112
           dy -0.0000672 0.0002230 0.0000019 0.0002236-0.0002917-0.0000005
           dz  0.0000009-0.0000016-0.0018876-0.0000027 0.0000032-0.0001726
  19 c     dx -0.0000971-0.0002942 0.0000008 0.0029015-0.0013724-0.0000009
           dy  0.0000932-0.0001601 0.0000070 0.0022837-0.0003343 0.0000035
           dz -0.0000046-0.0000034-0.0002222 0.0000007 0.0000075-0.0006302
  20 n     dx -0.0002106 0.0000672-0.0000028 0.0004139 0.0001890 0.0000003
           dy  0.0001247-0.0001069-0.0000001-0.0040154 0.0014444 0.0000007
           dz -0.0000092-0.0000103 0.0000383 0.0000035 0.0000122 0.0002373
  21 c     dx  0.0001765-0.0001693-0.0000041-0.0025882 0.0009199-0.0000027
           dy -0.0000659-0.0001117-0.0000031 0.0007979-0.0007380-0.0000054
           dz -0.0000076-0.0000129-0.0000097 0.0000075 0.0000085-0.0005790
  22 h     dx -0.0000586 0.0000208 0.0000002 0.0000041-0.0001525-0.0000000
           dy  0.0000113 0.0000003 0.0000010-0.0000324 0.0000403 0.0000006
           dz -0.0000010-0.0000013-0.0000185 0.0000007 0.0000010 0.0000194
  23 h     dx -0.0000310-0.0000468-0.0003369-0.0001312 0.0000527-0.0000575
           dy  0.0000128-0.0001123-0.0002544-0.0001109 0.0000413-0.0000619
           dz -0.0000069-0.0000030 0.0000537-0.0000066 0.0000040 0.0000148
  24 h     dx -0.0000304-0.0000485 0.0003322-0.0001308 0.0000514 0.0000527
           dy  0.0000127-0.0001135 0.0002524-0.0001104 0.0000408 0.0000605
           dz  0.0000065 0.0000032 0.0000556 0.0000061-0.0000028 0.0000167
  25 h     dx  0.0007818 0.0006657 0.0000006-0.0004014 0.0000837-0.0000001
           dy  0.0000627 0.0002881 0.0000003-0.0000167 0.0000155-0.0000003
           dz  0.0000001 0.0000004 0.0008282-0.0000006-0.0000004 0.0001680
  26 h     dx -0.0000708-0.0003987 0.0000001-0.0105164-0.0010901-0.0000005
           dy -0.0006352 0.0009196-0.0000000 0.0242907 0.0056972-0.0000012
           dz  0.0000006 0.0000013-0.0016167-0.0000037 0.0000073 0.0050161
  27 h     dx -0.0922119-0.0439608-0.1003599 0.0018019 0.0000541 0.0043413
           dy -0.0438858-0.0782126-0.0857221-0.0109171-0.0116495-0.0210269
           dz -0.0957867-0.0824193-0.2185590 0.0025428 0.0012776 0.0041718
  28 h     dx -0.0924790-0.0441272 0.1004080 0.0018091 0.0000520-0.0043343
           dy -0.0440966-0.0785263 0.0858169-0.0109190-0.0116257 0.0209912
           dz  0.0958394 0.0825067-0.2181083-0.0025536-0.0012970 0.0041894
  29 h     dx -0.0001091 0.0000332 0.0002762-0.0004167 0.0000816 0.0000894
           dy -0.0000285-0.0000327 0.0003187-0.0001552 0.0001596 0.0000535
           dz  0.0000062 0.0000015 0.0000485 0.0001295-0.0000926 0.0000073
  30 h     dx -0.0001076 0.0000324-0.0002788-0.0004160 0.0000796-0.0000924
           dy -0.0000288-0.0000310-0.0003200-0.0001560 0.0001605-0.0000526
           dz -0.0000077-0.0000033 0.0000494-0.0001275 0.0000936 0.0000085

   ATOM             13 c                          14 n 
                  dx        dy        dz        dx        dy        dz
  13 c     dx  0.6996614
           dy -0.0060289 0.4203802
           dz -0.0001067 0.0000161 0.1483522
  14 n     dx -0.1181030-0.0231528 0.0000754 0.4732738
           dy -0.0521257-0.1735216 0.0000201 0.0608925 0.3405510
           dz  0.0000663 0.0000248-0.0621682 0.0000034-0.0000271 0.0929010
  15 c     dx -0.0415407-0.0802509-0.0000206-0.2763423-0.0211597-0.0000701
           dy -0.0409359 0.0005744-0.0000017-0.0092222-0.1149670 0.0000082
           dz  0.0000097-0.0000217-0.0001393-0.0000592-0.0000158-0.0617017
  16 c     dx  0.0001915 0.0030710 0.0000046-0.0109540-0.0142449 0.0000135
           dy  0.0053826 0.0036603-0.0000065-0.0159666 0.0076027-0.0000245
           dz -0.0000100-0.0000038 0.0078478 0.0000042-0.0000102-0.0096337
  17 c     dx -0.0016581 0.0035964-0.0000011-0.0020304-0.0055044-0.0000003
           dy  0.0002555 0.0013701 0.0000091-0.0045406-0.0074015 0.0000159
           dz -0.0000033 0.0000015 0.0002455 0.0000038 0.0000034-0.0003776
  18 c     dx -0.0001415-0.0000143 0.0000150-0.0000497 0.0000257 0.0000135
           dy -0.0001177 0.0002063-0.0000002-0.0000318-0.0002678-0.0000029
           dz  0.0000047-0.0000020-0.0000097 0.0000015-0.0000024 0.0000383
  19 c     dx  0.0000462 0.0031948-0.0000008-0.0023328-0.0011734-0.0000016
           dy -0.0007729 0.0021909 0.0000027-0.0011964-0.0021235-0.0000010
           dz  0.0000011 0.0000015 0.0000780 0.0000053-0.0000001-0.0003544
  20 n     dx -0.0006789 0.0009776-0.0000019-0.0013036-0.0019293 0.0000015
           dy  0.0005043-0.0048720 0.0000057 0.0042211 0.0036206 0.0000041
           dz  0.0000012 0.0000001-0.0001292 0.0000079 0.0000033-0.0006381
  21 c     dx  0.0004683-0.0044615-0.0000034 0.0050372 0.0041693-0.0000035
           dy  0.0006307 0.0016406-0.0000050-0.0017694 0.0003628-0.0000066
           dz -0.0000035-0.0000006 0.0002607 0.0000053-0.0000014 0.0014839
  22 h     dx -0.0000212-0.0000582-0.0000002-0.0000258 0.0000678-0.0000003
           dy -0.0000205-0.0000210 0.0000004-0.0001024-0.0000102-0.0000002
           dz -0.0000003-0.0000004-0.0000462 0.0000010 0.0000006 0.0000619
  23 h     dx  0.0000350-0.0000598-0.0000049-0.0000162 0.0000879 0.0000008
           dy  0.0000828-0.0000534-0.0000012 0.0000772 0.0001201-0.0000143
           dz  0.0000116-0.0000094-0.0000008-0.0000021 0.0000066 0.0000008
  24 h     dx  0.0000348-0.0000616-0.0000008-0.0000171 0.0000859-0.0000064
           dy  0.0000825-0.0000542 0.0000012 0.0000768 0.0001194 0.0000149
           dz -0.0000106 0.0000099 0.0000013 0.0000030-0.0000065 0.0000025
  25 h     dx  0.0001869-0.0000121 0.0000006-0.0000276 0.0001298 0.0000004
           dy  0.0000256 0.0000656-0.0000007 0.0000190-0.0000212-0.0000011
           dz  0.0000007-0.0000001-0.0002397 0.0000003-0.0000002 0.0001423
  26 h     dx -0.3258294-0.0024144 0.0000755-0.0087138-0.0096706-0.0000006
           dy  0.0003072-0.0472853-0.0000050-0.0337138-0.0141273 0.0000051
           dz  0.0000740-0.0000131-0.0379787 0.0000026 0.0000097-0.0042273
  27 h     dx  0.0000764 0.0002609-0.0001613 0.0002832-0.0000013-0.0002548
           dy -0.0011131 0.0007239-0.0002389-0.0004882-0.0007340 0.0011248
           dz -0.0005496 0.0001324 0.0001129-0.0000823-0.0002634-0.0001567
  28 h     dx  0.0000762 0.0002597 0.0001587 0.0002825-0.0000023 0.0002528
           dy -0.0011133 0.0007246 0.0002327-0.0004888-0.0007335-0.0011217
           dz  0.0005487-0.0001303 0.0001132 0.0000811 0.0002627-0.0001588
  29 h     dx  0.0001760-0.0008102-0.0012736 0.0000670 0.0006181 0.0003763
           dy -0.0000080-0.0007395-0.0011384 0.0000035 0.0004321 0.0009504
           dz  0.0000537 0.0002832-0.0001705-0.0002436 0.0003272 0.0000867
  30 h     dx  0.0001750-0.0008105 0.0012681 0.0000661 0.0006166-0.0003826
           dy -0.0000079-0.0007380 0.0011407 0.0000046 0.0004311-0.0009451
           dz -0.0000546-0.0002819-0.0001696 0.0002436-0.0003270 0.0000906

   ATOM             15 c                          16 c 
                  dx        dy        dz        dx        dy        dz
  15 c     dx  0.6192884
           dy -0.1112430 0.5801072
           dz  0.0001531-0.0001129 0.1737758
  16 c     dx -0.0550239-0.0026035 0.0000310 0.2203904
           dy  0.0256726-0.0861148 0.0000018-0.0539149 0.4876243
           dz -0.0000006-0.0000102-0.0736845-0.0001246 0.0001576 0.5529158
  17 c     dx -0.0244614-0.0057948-0.0000220-0.0674841-0.0095420 0.0000610
           dy -0.0005579 0.0093392-0.0000014 0.0150242-0.0773661-0.0000981
           dz  0.0000150-0.0000028-0.0002353 0.0000407-0.0000556-0.0722697
  18 c     dx -0.0002314 0.0002166 0.0000053 0.0000622 0.0002113 0.0000009
           dy -0.0001707-0.0000258-0.0000023 0.0001482 0.0000827 0.0000016
           dz -0.0000064-0.0000028-0.0002222-0.0000075 0.0000093-0.0018876
  19 c     dx  0.0008183 0.0004751-0.0000030 0.0008032-0.0016246-0.0000019
           dy  0.0010540 0.0016283-0.0000035 0.0009631-0.0035572-0.0000045
           dz -0.0000046 0.0000004-0.0002733-0.0000012 0.0000035-0.0005266
  20 n     dx -0.0004041 0.0005522-0.0000001 0.0007242-0.0055961-0.0000002
           dy -0.0034147-0.0004729 0.0000056-0.0043476 0.0041209 0.0000083
           dz -0.0000066 0.0000005 0.0008753-0.0000032 0.0000058 0.0066796
  21 c     dx -0.0032556 0.0018771-0.0000005-0.0048119 0.0044438 0.0000061
           dy  0.0047611-0.0058353-0.0000009 0.0082023 0.0070141-0.0000007
           dz -0.0000070-0.0000009-0.0015015 0.0000025-0.0000120-0.0052172
  22 h     dx -0.0002052-0.0002580-0.0000002 0.0011197-0.0000521-0.0000001
           dy -0.0000879-0.0000606-0.0000004-0.0002886-0.0002709-0.0000001
           dz -0.0000009-0.0000002 0.0001060 0.0000009-0.0000012-0.0016167
  23 h     dx -0.0000369-0.0000344-0.0000182-0.0000517-0.0000035-0.0001377
           dy  0.0000395-0.0001084 0.0000585-0.0000647-0.0000868 0.0004014
           dz  0.0000038-0.0000015 0.0000088 0.0000010 0.0000083 0.0000494
  24 h     dx -0.0000385-0.0000353 0.0000160-0.0000538-0.0000034 0.0001379
           dy  0.0000388-0.0001091-0.0000572-0.0000651-0.0000880-0.0003985
           dz -0.0000047 0.0000014 0.0000093-0.0000018-0.0000061 0.0000485
  25 h     dx -0.0000170-0.0000314 0.0000003-0.0000283-0.0000288 0.0000008
           dy  0.0000157 0.0000037-0.0000008-0.0000383-0.0000299-0.0000007
           dz -0.0000007 0.0000004 0.0001237-0.0000006 0.0000015-0.0000185
  26 h     dx  0.0017577-0.0005472 0.0000033 0.0000961 0.0003332-0.0000001
           dy -0.0043186-0.0041121 0.0000019-0.0002699 0.0009738-0.0000007
           dz -0.0000020-0.0000021 0.0094543 0.0000003-0.0000003 0.0008282
  27 h     dx -0.0001804 0.0002414 0.0000205-0.0000772 0.0000143 0.0000525
           dy  0.0003891-0.0000235-0.0000146 0.0000755-0.0000667-0.0004139
           dz  0.0002040 0.0000235 0.0000236-0.0000005-0.0000072 0.0000556
  28 h     dx -0.0001797 0.0002416-0.0000214-0.0000773 0.0000139-0.0000519
           dy  0.0003871-0.0000246 0.0000177 0.0000735-0.0000660 0.0004190
           dz -0.0002026-0.0000229 0.0000223 0.0000009 0.0000075 0.0000537
  29 h     dx  0.0030235-0.0104062 0.0173814-0.0436738 0.0158623-0.0240576
           dy  0.0015452-0.0116066 0.0142521 0.0159372-0.1267508 0.1297753
           dz  0.0008978-0.0026552 0.0040934-0.0234839 0.1241634-0.2185590
  30 h     dx  0.0030387-0.0104188-0.0173662-0.0438125 0.0159990 0.0241156
           dy  0.0015720-0.0116130-0.0142221 0.0160296-0.1271929-0.1298643
           dz -0.0009036 0.0026739 0.0041035 0.0235332-0.1242527-0.2181083

   ATOM             17 c                          18 c 
                  dx        dy        dz        dx        dy        dz
  17 c     dx  0.5088124
           dy  0.0847573 0.6103084
           dz -0.0000075-0.0001359 0.1518164
  18 c     dx -0.0012868-0.0006301-0.0000049 0.4675075
           dy  0.0020268-0.0001126 0.0000007-0.0887582 0.2405072
           dz -0.0000012-0.0000076 0.0002434 0.0001988 0.0000291 0.5529158
  19 c     dx -0.0286538-0.0250210 0.0000019-0.0883313 0.0218336-0.0000085
           dy -0.0381936-0.0137292-0.0000020-0.0064426-0.0528074 0.0000057
           dz  0.0000054-0.0000053-0.0091556-0.0000140-0.0000277-0.0736845
  20 n     dx -0.0465527 0.0133754 0.0000030 0.0160455-0.0013433-0.0000109
           dy  0.0697129 0.0367306-0.0000038 0.0003785-0.0193968 0.0000015
           dz  0.0000092 0.0000076 0.0148275-0.0000280 0.0000005-0.0096337
  21 c     dx -0.2261126 0.0002984-0.0000213-0.0008674-0.0024597 0.0000017
           dy -0.0413856-0.1203825 0.0000223-0.0047712 0.0047192 0.0000105
           dz -0.0000072 0.0000364-0.0593572-0.0000079-0.0000007 0.0078478
  22 h     dx -0.0084024-0.0255112-0.0000008 0.0007269-0.0000944-0.0000005
           dy -0.0001304 0.0035832 0.0000011-0.0006974 0.0003429 0.0000004
           dz  0.0000082-0.0000005 0.0050161-0.0000004-0.0000001 0.0008282
  23 h     dx  0.0000495-0.0001127 0.0000007-0.1202165 0.0280823-0.1245236
           dy -0.0003484-0.0003049 0.0001064 0.0281129-0.0507888 0.0440474
           dz  0.0001448 0.0000637 0.0000085-0.1193726 0.0417460-0.2181083
  24 h     dx  0.0000474-0.0001128 0.0000016-0.1197511 0.0279860 0.1244175
           dy -0.0003495-0.0003045-0.0001042 0.0280610-0.0506734-0.0440532
           dz -0.0001449-0.0000659 0.0000073 0.1192706-0.0417441-0.2185590
  25 h     dx  0.0001113-0.0000295 0.0000005 0.0002243 0.0008056-0.0000000
           dy  0.0000906-0.0000669-0.0000003 0.0005691 0.0006245 0.0000001
           dz  0.0000005-0.0000011 0.0000194-0.0000014-0.0000002-0.0016167
  26 h     dx -0.0001178-0.0001470-0.0000003-0.0000005 0.0000222-0.0000010
           dy -0.0002475-0.0002682 0.0000003 0.0000127-0.0000577-0.0000003
           dz -0.0000001 0.0000007 0.0001680 0.0000016-0.0000003-0.0000185
  27 h     dx  0.0000234 0.0000213 0.0000260-0.0000498 0.0000628-0.0004141
           dy -0.0001405-0.0001134-0.0000759 0.0000010-0.0000920 0.0000799
           dz -0.0000055-0.0000038 0.0000167-0.0000044 0.0000046 0.0000485
  28 h     dx  0.0000234 0.0000217-0.0000248-0.0000486 0.0000628 0.0004165
           dy -0.0001419-0.0001133 0.0000808 0.0000016-0.0000900-0.0000814
           dz  0.0000068 0.0000037 0.0000148 0.0000067-0.0000050 0.0000494
  29 h     dx -0.0035828 0.0140260-0.0203805-0.0001083-0.0000576-0.0003847
           dy  0.0030548-0.0062647 0.0067538 0.0000036-0.0000357 0.0001614
           dz -0.0001650-0.0028409 0.0041718-0.0000060 0.0000040 0.0000556
  30 h     dx -0.0035614 0.0140197 0.0203460-0.0001067-0.0000565 0.0003888
           dy  0.0030487-0.0062551-0.0067419 0.0000031-0.0000366-0.0001646
           dz  0.0001536 0.0028600 0.0041894 0.0000060-0.0000045 0.0000537

   ATOM             19 c                          20 n 
                  dx        dy        dz        dx        dy        dz
  19 c     dx  0.6862418
           dy  0.0725875 0.5131538
           dz -0.0001743-0.0000761 0.1737758
  20 n     dx -0.1421550-0.0563133 0.0000159 0.3209973
           dy -0.0682508-0.2491542 0.0000592 0.0270244 0.4928276
           dz  0.0000422 0.0000566-0.0617017-0.0000252 0.0000106 0.0929010
  21 c     dx  0.0425211 0.0317178-0.0000237-0.1270704 0.0283301-0.0000117
           dy -0.0075971-0.0834873 0.0000025 0.0573031-0.1645542-0.0000698
           dz  0.0000088 0.0000187-0.0001393-0.0000203-0.0000754-0.0621682
  22 h     dx -0.0005377 0.0056439-0.0000000 0.0060121 0.0252118 0.0000047
           dy  0.0018724-0.0018167-0.0000038 0.0011686-0.0288531-0.0000020
           dz -0.0000008 0.0000028 0.0094543 0.0000071-0.0000071-0.0042273
  23 h     dx -0.0041193 0.0025607-0.0036336 0.0000708-0.0000074-0.0006272
           dy  0.0145515-0.0044550 0.0221506-0.0006193 0.0004263 0.0008039
           dz  0.0027675-0.0005544 0.0041035-0.0004050-0.0000475 0.0000906
  24 h     dx -0.0041122 0.0025746 0.0036520 0.0000716-0.0000062 0.0006349
           dy  0.0145260-0.0044710-0.0221788-0.0006208 0.0004275-0.0008011
           dz -0.0027484 0.0005501 0.0040934 0.0004051 0.0000474 0.0000867
  25 h     dx  0.0000530-0.0000612-0.0000003 0.0000009 0.0000870-0.0000000
           dy  0.0001089-0.0003188 0.0000004-0.0000832-0.0000369 0.0000003
           dz  0.0000002 0.0000009 0.0001060-0.0000000-0.0000012 0.0000619
  26 h     dx  0.0000053-0.0000286-0.0000009-0.0000872 0.0000154-0.0000012
           dy  0.0000185-0.0000187 0.0000001-0.0000953 0.0000384 0.0000002
           dz  0.0000007 0.0000004 0.0001237-0.0000003-0.0000001 0.0001423
  27 h     dx -0.0000930-0.0000074-0.0000575 0.0000148-0.0000952 0.0000161
           dy  0.0000668-0.0000546 0.0000147-0.0001044 0.0000875-0.0000020
           dz  0.0000036 0.0000034 0.0000093-0.0000071 0.0000007 0.0000025
  28 h     dx -0.0000927-0.0000073 0.0000598 0.0000145-0.0000949-0.0000128
           dy  0.0000667-0.0000526-0.0000135-0.0001056 0.0000894 0.0000064
           dz -0.0000032-0.0000025 0.0000088 0.0000068-0.0000015 0.0000008
  29 h     dx -0.0003358-0.0002994-0.0000229-0.0002678 0.0008063 0.0011015
           dy -0.0001517 0.0001318-0.0000105 0.0003194-0.0001831-0.0003418
           dz -0.0000816-0.0001884 0.0000236-0.0001870 0.0002030-0.0001567
  30 h     dx -0.0003356-0.0002971 0.0000260-0.0002669 0.0008060-0.0010978
           dy -0.0001516 0.0001313 0.0000097 0.0003195-0.0001842 0.0003419
           dz  0.0000815 0.0001870 0.0000223 0.0001869-0.0002016-0.0001588

   ATOM             21 c                          22 h 
                  dx        dy        dz        dx        dy        dz
  21 c     dx  0.4954217
           dy  0.1239468 0.6246199
           dz  0.0000673 0.0000844 0.1483522
  22 h     dx -0.1160089-0.1214471-0.0000421 0.1252328
           dy -0.1187255-0.2571058-0.0000629 0.1168864 0.2832723
           dz -0.0000483-0.0000575-0.0379787 0.0000367 0.0000654 0.0237204
  23 h     dx -0.0001554 0.0001987 0.0003539-0.0000054 0.0000158 0.0000097
           dy  0.0010012-0.0004076-0.0016685 0.0000130-0.0000700-0.0001042
           dz -0.0002168 0.0001882-0.0001696-0.0000159 0.0000151-0.0000080
  24 h     dx -0.0001564 0.0001999-0.0003491-0.0000055 0.0000158-0.0000092
           dy  0.0010021-0.0004072 0.0016722 0.0000129-0.0000700 0.0001044
           dz  0.0002184-0.0001881-0.0001705 0.0000160-0.0000152-0.0000081
  25 h     dx  0.0000130 0.0000008 0.0000005 0.0000017 0.0000034 0.0000000
           dy  0.0000385-0.0000552-0.0000000-0.0000016-0.0000206-0.0000000
           dz -0.0000001 0.0000005-0.0000462 0.0000001 0.0000001-0.0000103
  26 h     dx  0.0000900 0.0000303-0.0000009-0.0000142-0.0000126-0.0000001
           dy  0.0000680 0.0001624-0.0000001-0.0000075-0.0000047 0.0000000
           dz -0.0000004-0.0000006-0.0002397 0.0000000 0.0000000-0.0000103
  27 h     dx -0.0000410-0.0000387 0.0000015 0.0000065-0.0000082-0.0000074
           dy  0.0001054 0.0000216 0.0000001-0.0000208-0.0000015 0.0000081
           dz  0.0000139 0.0000042 0.0000013 0.0000004-0.0000025-0.0000008
  28 h     dx -0.0000412-0.0000388 0.0000013 0.0000065-0.0000082 0.0000077
           dy  0.0001038 0.0000229 0.0000048-0.0000210-0.0000014-0.0000075
           dz -0.0000139-0.0000053-0.0000008-0.0000003 0.0000026-0.0000010
  29 h     dx  0.0009311 0.0006197-0.0001263-0.0002567-0.0000840-0.0004366
           dy -0.0007543-0.0001307 0.0002591 0.0001033 0.0000043 0.0001550
           dz  0.0003895 0.0004097 0.0001129-0.0000362 0.0000338 0.0000387
  30 h     dx  0.0009321 0.0006191 0.0001221-0.0002574-0.0000840 0.0004366
           dy -0.0007539-0.0001313-0.0002538 0.0001033 0.0000041-0.0001545
           dz -0.0003872-0.0004100 0.0001132 0.0000361-0.0000341 0.0000387

   ATOM             23 h                          24 h 
                  dx        dy        dz        dx        dy        dz
  23 h     dx  0.1309550
           dy -0.0300399 0.0554306
           dz  0.1283479-0.0450982 0.2302292
  24 h     dx  0.0112968-0.0038301-0.0148652 0.1305142
           dy -0.0038316 0.0019082 0.0053587-0.0299520 0.0553410
           dz  0.0148264-0.0053429-0.0187364-0.1282504 0.0450876 0.2306979
  25 h     dx -0.0000696-0.0000244-0.0000476-0.0000694-0.0000241 0.0000473
           dy -0.0002117-0.0001837-0.0000142-0.0002115-0.0001831 0.0000145
           dz -0.0003521-0.0003008 0.0000387 0.0003525 0.0003006 0.0000387
  26 h     dx -0.0000120-0.0000025-0.0000021-0.0000121-0.0000025 0.0000020
           dy  0.0000103 0.0000172-0.0000015 0.0000101 0.0000171 0.0000016
           dz  0.0000027 0.0000104-0.0000010-0.0000033-0.0000105-0.0000008
  27 h     dx -0.0000911-0.0001048 0.0000127 0.0000316 0.0000016 0.0000102
           dy  0.0000371 0.0000541 0.0000016 0.0000030 0.0000461-0.0000034
           dz  0.0000108 0.0000026-0.0000025-0.0000085-0.0000087-0.0000006
  28 h     dx  0.0000312 0.0000015-0.0000100-0.0000910-0.0001047-0.0000124
           dy  0.0000031 0.0000461 0.0000032 0.0000370 0.0000543-0.0000018
           dz  0.0000080 0.0000085-0.0000008-0.0000114-0.0000031-0.0000022
  29 h     dx -0.0000113 0.0001507 0.0000084 0.0000444 0.0000058 0.0000117
           dy  0.0000090-0.0000253-0.0000083 0.0000045 0.0000332-0.0000030
           dz  0.0000077-0.0000098-0.0000022-0.0000022 0.0000105-0.0000006
  30 h     dx  0.0000444 0.0000061-0.0000113-0.0000115 0.0001508-0.0000077
           dy  0.0000045 0.0000329 0.0000027 0.0000088-0.0000254 0.0000080
           dz  0.0000022-0.0000103-0.0000008-0.0000078 0.0000102-0.0000025

   ATOM             25 h                          26 h 
                  dx        dy        dz        dx        dy        dz
  25 h     dx  0.1425359
           dy -0.1268763 0.2659692
           dz  0.0000383-0.0000644 0.0237204
  26 h     dx -0.0000158 0.0000117-0.0000000 0.3449890
           dy  0.0000067-0.0000031-0.0000000 0.0099899 0.0635161
           dz  0.0000000-0.0000001-0.0000103-0.0000749-0.0000009 0.0237204
  27 h     dx -0.0000663 0.0000222 0.0000950-0.0000526 0.0000145 0.0000840
           dy  0.0000193-0.0000092-0.0000443 0.0002018-0.0001998-0.0004556
           dz -0.0000212-0.0000063-0.0000081-0.0000111-0.0000482 0.0000387
  28 h     dx -0.0000663 0.0000221-0.0000951-0.0000529 0.0000148-0.0000845
           dy  0.0000194-0.0000091 0.0000437 0.0002021-0.0002004 0.0004554
           dz  0.0000210 0.0000063-0.0000080 0.0000115 0.0000484 0.0000387
  29 h     dx  0.0000131 0.0000170 0.0000107-0.0000415-0.0000336-0.0000859
           dy  0.0000045-0.0000081 0.0000024-0.0000365-0.0000341-0.0000602
           dz -0.0000023 0.0000009-0.0000008 0.0000052 0.0000215-0.0000081
  30 h     dx  0.0000132 0.0000171-0.0000104-0.0000414-0.0000338 0.0000854
           dy  0.0000043-0.0000081-0.0000029-0.0000365-0.0000340 0.0000605
           dz  0.0000024-0.0000011-0.0000010-0.0000051-0.0000213-0.0000080

   ATOM             27 h                          28 h 
                  dx        dy        dz        dx        dy        dz
  27 h     dx  0.1000734
           dy  0.0475269 0.0857817
           dz  0.1031722 0.0885243 0.2306979
  28 h     dx  0.0075729 0.0059801-0.0120403 0.1003270
           dy  0.0059816 0.0056320-0.0101685 0.0477230 0.0860586
           dz  0.0120734 0.0101943-0.0187364-0.1032302-0.0886035 0.2302292
  29 h     dx  0.0000405-0.0000081-0.0000080 0.0000472-0.0001169-0.0000050
           dy -0.0000067 0.0000372-0.0000071 0.0000250-0.0000841-0.0000118
           dz -0.0000033 0.0000117-0.0000006-0.0000031-0.0000107-0.0000025
  30 h     dx  0.0000473-0.0001169 0.0000047 0.0000404-0.0000084 0.0000078
           dy  0.0000249-0.0000840 0.0000116-0.0000068 0.0000369 0.0000071
           dz  0.0000030 0.0000114-0.0000022 0.0000033-0.0000112-0.0000008

   ATOM             29 h                          30 h 
                  dx        dy        dz        dx        dy        dz
  29 h     dx  0.0481951
           dy -0.0175750 0.1376600
           dz  0.0250781-0.1336119 0.2306979
  30 h     dx  0.0009377-0.0021507-0.0027861 0.0482964
           dy -0.0021492 0.0122673 0.0155115-0.0176831 0.1380892
           dz  0.0027918-0.0155530-0.0187364-0.0251178 0.1337017 0.2302292
 

   *** projected hessian written onto $hessian (projected), file=<hessian> ***

 dipole moment in principle axis system (a.u.) :
     0.0000000000     0.0000000000    -0.0006698016
 norm :  6.698016236633131E-004

 rotational constants b for rotations around axis of inertia
 and optical intensities for (1 <-- 0) transition

   b   :     0.0148179707     0.0148179707     0.0074403603   (cm**(-1))
   b   :         444.2316         444.2316         223.0564     (MHz)
  int. :     0.0000000000     0.0000000000     0.0000004486     (a.u.)

   x   :     1.0000000000     0.0000000000     0.0000000000
   y   :     0.0000000000     1.0000000000     0.0000000000
   z   :     0.0000000000     0.0000000000     1.0000000000

   ***  normal modes written onto $vibrational normal modes, file=<vib_normal_modes>  ***

   ***  vibrational spectroscopic data written onto$vibrational spectrum   
        file=<vibspectrum>  ***

          ---------------------------------------------------
          NORMAL MODES and VIBRATIONAL FREQUENCIES (cm**(-1))
          ---------------------------------------------------

 imaginary wave numbers indicate a negative curvature of the energy surface.
 zero frequency modes have no physical meaning except being generators of
 translations and rotations. each vibrational normal mode - given in terms of
 cartesian displacement vectors of all atoms - has been normalized to unity.
 to obtain mass-weigthed normal coordinates in a.u. divide the tabulated
 modes by sqrt(reduced mass * 1822.88853).
 band intensities or cross sections refer to independent non-degenerate normal
 modes, that is, the intensities of degenerate modes have yet to be added.
 dDIP/dQ is the normal mode derivative of the dipole moment.

 WARNING: values of IR intensities are questionable for saddle point structures


       mode               1        2        3        4        5        6

     frequency        i154.48     0.00     0.00     0.00     0.00     0.00

     symmetry            a                                                

        IR               YES       -        -        -        -        - 
|dDIP/dQ|   (a.u.)     0.0000   0.0000   0.0000   0.0000   0.0000   0.0000
intensity (km/mol)       0.00     0.00     0.00     0.00     0.00     0.00
intensity (  %   )       0.00     0.00     0.00     0.00     0.00     0.00
 
       RAMAN             YES       -        -        -        -        - 
 
  1   c           x  -0.00002  0.00218  0.11911 -0.00059 -0.02143  0.12743
                  y   0.00005  0.00281 -0.12743 -0.00536 -0.07473  0.03463
                  z  -0.25230  0.00236 -0.06376  0.13063  0.08637  0.10227
  2   c           x  -0.00004  0.00401  0.08818 -0.02610  0.02053  0.11479
                  y   0.00007  0.00437 -0.15387 -0.02716 -0.03886  0.02382
                  z  -0.24388 -0.08188 -0.04229  0.14573  0.08260  0.05274
  3   c           x  -0.00004  0.00258  0.11236 -0.00616 -0.01226  0.12467
                  y  -0.00007  0.00049 -0.08810  0.02708 -0.12808  0.05071
                  z  -0.24388  0.00590 -0.07503  0.05232  0.06116  0.14448
  4   c           x  -0.00003  0.00485  0.07399 -0.03780  0.03978  0.10898
                  y  -0.00005 -0.00031 -0.07453  0.03827 -0.14649  0.05626
                  z  -0.25230 -0.07601 -0.06481 -0.01283  0.03143  0.13755
  5   c           x   0.00008  0.00666  0.04331 -0.06311  0.08140  0.09644
                  y  -0.00000  0.00120 -0.10005  0.01723 -0.11187  0.04583
                  z  -0.24388 -0.15921 -0.04376  0.00087  0.02730  0.08925
  6   c           x   0.00006  0.00622  0.05074 -0.05698  0.07132  0.09948
                  y  -0.00001  0.00356 -0.14006 -0.01577 -0.05760  0.02947
                  z  -0.25230 -0.16153 -0.03251  0.08112  0.05327  0.04665
  7   c           x   0.00011  0.00091  0.14071  0.01720 -0.05073  0.13628
                  y  -0.00003 -0.00122 -0.05947  0.05068 -0.16692  0.06241
                  z   0.00436  0.08525 -0.09627  0.03053  0.06225  0.19504
  8   c           x   0.00005 -0.00132  0.17862  0.04848 -0.10216  0.15178
                  y  -0.00006 -0.00012 -0.07802  0.03538 -0.14176  0.05483
                  z   0.14231  0.16370 -0.10456  0.10421  0.09441  0.19585
  9   n           x   0.00000 -0.00175  0.18592  0.05449 -0.11207  0.15477
                  y  -0.00004  0.00225 -0.11827  0.00218 -0.08715  0.03837
                  z   0.15468  0.16096 -0.09317  0.18477  0.12043  0.15287
 10   c           x  -0.00003  0.00004  0.15556  0.02946 -0.07088  0.14235
                  y  -0.00000  0.00376 -0.14391 -0.01896 -0.05238  0.02789
                  z   0.00505  0.07844 -0.07221  0.19902  0.11656  0.10463
 11   c           x  -0.00000  0.00059  0.14621  0.02173 -0.05821  0.13854
                  y   0.00002  0.00649 -0.19053 -0.05743  0.01087  0.00881
                  z   0.11142  0.03420 -0.05205  0.27349  0.13631  0.04424
 12   c           x  -0.00008  0.00339  0.09879 -0.01736  0.00612  0.11914
                  y  -0.00008  0.00664 -0.19273 -0.05923  0.01386  0.00792
                  z   0.00436 -0.07629 -0.03269  0.22729  0.10980  0.01337
 13   c           x  -0.00008  0.00545  0.06377 -0.04624  0.05363  0.10482
                  y  -0.00001  0.00804 -0.21629 -0.07866  0.04582 -0.00171
                  z   0.14231 -0.16855 -0.01064  0.23285  0.10209 -0.03521
 14   n           x  -0.00003  0.00773  0.02526 -0.07802  0.10588  0.08907
                  y   0.00002  0.00722 -0.20249 -0.06728  0.02709  0.00393
                  z   0.15468 -0.25070 -0.00044  0.16712  0.07214 -0.04195
 15   c           x   0.00002  0.00814  0.01824 -0.08380  0.11540  0.08620
                  y   0.00003  0.00491 -0.16338 -0.03502 -0.02596  0.01992
                  z   0.00505 -0.24786 -0.01153  0.08893  0.04690 -0.00016
 16   c           x   0.00002  0.01025 -0.01747 -0.11327  0.16383  0.07162
                  y  -0.00001  0.00303 -0.13197 -0.00913 -0.06857  0.03276
                  z   0.11142 -0.31497 -0.00866 -0.00568  0.00907  0.01547
 17   c           x  -0.00003  0.00896  0.00434 -0.09527  0.13426  0.08052
                  y   0.00011  0.00057 -0.08981  0.02566 -0.12577  0.05001
                  z   0.00436 -0.24415 -0.03212 -0.05890 -0.00099  0.07805
 18   c           x  -0.00002  0.00243  0.11508 -0.00394 -0.01599  0.12582
                  y  -0.00001 -0.00360 -0.01950  0.08363 -0.22115  0.07875
                  z   0.11142  0.04559 -0.10038 -0.06890  0.02568  0.22676
 19   c           x   0.00002  0.00508  0.07004 -0.04108  0.04513  0.10738
                  y  -0.00003 -0.00268 -0.03472  0.07109 -0.20050  0.07253
                  z   0.00505 -0.06577 -0.07735 -0.08903  0.00760  0.18199
 20   n           x   0.00003  0.00729  0.03266 -0.07191  0.09584  0.09210
                  y   0.00002 -0.00348 -0.02124  0.08221 -0.21878  0.07804
                  z   0.15468 -0.14545 -0.06748 -0.15298 -0.02151  0.17555
 21   c           x   0.00003  0.00913  0.00145 -0.09765  0.13818  0.07933
                  y   0.00007 -0.00191 -0.04770  0.06039 -0.18289  0.06723
                  z   0.14231 -0.23033 -0.04589 -0.13815 -0.02544  0.12583
 22   h           x   0.00006  0.01081 -0.02704 -0.12114  0.17683  0.06768
                  y   0.00002 -0.00278 -0.03286  0.07264 -0.20302  0.07330
                  z   0.28915 -0.28884 -0.03999 -0.19514 -0.05009  0.12629
 23   h           x  -0.07555 -0.01060  0.13062  0.04835 -0.01050  0.09781
                  y   0.02529  0.05537 -0.01156  0.12613 -0.23055  0.10168
[...]
                  z   0.00007 -0.00006 -0.00005  0.00005  0.00005  0.00006
 13   c           x  -0.03777  0.07716  0.01331 -0.02245 -0.01335 -0.03447
                  y  -0.04416 -0.04672  0.09098  0.03574 -0.06498  0.01432
                  z  -0.00000 -0.00001  0.00001 -0.00001 -0.00001 -0.00001
 14   n           x   0.04077 -0.12339 -0.04470  0.02743  0.03399  0.04632
                  y   0.02406  0.01307 -0.05222 -0.00712  0.04293 -0.00502
                  z   0.00000 -0.00002  0.00002  0.00003 -0.00001  0.00002
 15   c           x   0.00527  0.26511 -0.06712 -0.21636  0.01704 -0.18307
                  y  -0.05176 -0.25126  0.14285  0.20156 -0.09932  0.19787
                  z   0.00004  0.00011 -0.00008 -0.00012  0.00003 -0.00009
 16   c           x  -0.02234 -0.03172 -0.00057  0.00397  0.00594  0.02741
                  y  -0.00001  0.00372 -0.02149 -0.02601  0.00770 -0.00447
                  z  -0.00003  0.00000 -0.00001 -0.00000  0.00001  0.00001
 17   c           x   0.11539  0.01998  0.03281  0.09049 -0.08779 -0.08526
                  y   0.26735  0.14138  0.20174  0.24117 -0.05940 -0.21122
                  z  -0.00008 -0.00003 -0.00005 -0.00007  0.00002  0.00006
 18   c           x   0.01095 -0.01920 -0.01832  0.00905 -0.02308 -0.01758
                  y   0.01250 -0.02957  0.01124  0.00301  0.01278 -0.02151
                  z   0.00002  0.00002 -0.00001 -0.00001 -0.00000  0.00001
 19   c           x  -0.27951  0.21618  0.15727 -0.05950  0.29212  0.26290
                  y  -0.10069  0.03352 -0.01330 -0.07352  0.05754  0.05961
                  z   0.00008 -0.00009 -0.00008  0.00003 -0.00012 -0.00009
 20   n           x   0.06300 -0.03690 -0.02287 -0.00754 -0.02731 -0.02751
                  y   0.11055 -0.00916  0.06482  0.05418  0.00796 -0.03760
                  z  -0.00002  0.00001  0.00002 -0.00001  0.00003  0.00002
 21   c           x  -0.05877  0.05628  0.07213  0.02187  0.06133  0.02964
                  y  -0.06503 -0.02572 -0.05702 -0.03894 -0.02066  0.02269
                  z  -0.00001  0.00001  0.00001  0.00001 -0.00001 -0.00001
 22   h           x  -0.11638 -0.19367 -0.15329 -0.09730 -0.03848  0.08771
                  y  -0.03723  0.11274  0.06969  0.02820  0.03654 -0.00965
                  z   0.00003 -0.00004 -0.00002  0.00003 -0.00004 -0.00002
 23   h           x   0.01121  0.07760 -0.08303  0.01189 -0.07710  0.02769
                  y  -0.10470  0.15481  0.00966 -0.02911  0.02255  0.10519
                  z  -0.02529 -0.02187  0.04203 -0.00944  0.03661 -0.00172
 24   h           x   0.01122  0.07748 -0.08301  0.01191 -0.07705  0.02766
                  y  -0.10440  0.15445  0.00970 -0.02902  0.02256  0.10497
                  z   0.02519  0.02182 -0.04189  0.00940 -0.03645  0.00174
 25   h           x   0.15544 -0.11971  0.13700 -0.08060  0.03785 -0.05222
                  y   0.03673 -0.15908  0.09791 -0.04812  0.05324 -0.07113
                  z  -0.00005 -0.00001 -0.00002  0.00002  0.00004 -0.00002
 26   h           x  -0.04452  0.07872  0.01629 -0.02285 -0.01478 -0.03550
                  y   0.23516  0.04088 -0.16760  0.00451  0.11099  0.08079
                  z   0.00002  0.00005 -0.00002 -0.00005 -0.00000 -0.00002
 27   h           x   0.13030  0.03565  0.04990 -0.03474 -0.05596  0.07708
                  y  -0.14623  0.03537  0.06704 -0.05012 -0.02409 -0.07644
                  z   0.00630 -0.03273 -0.04189  0.02687  0.02637  0.00174
 28   h           x   0.13064  0.03574  0.04988 -0.03472 -0.05602  0.07725
                  y  -0.14656  0.03538  0.06708 -0.05019 -0.02406 -0.07658
                  z  -0.00630  0.03284  0.04203 -0.02698 -0.02648 -0.00172
 29   h           x   0.10699  0.15969  0.03311  0.00685 -0.02610 -0.10474
                  y  -0.02219  0.05868 -0.07674 -0.07997  0.01751 -0.02853
                  z  -0.03149  0.01091 -0.04189 -0.03627  0.01008  0.00174
 30   h           x   0.10718  0.16010  0.03316  0.00684 -0.02619 -0.10494
                  y  -0.02220  0.05884 -0.07674 -0.08002  0.01750 -0.02861
                  z   0.03159 -0.01096  0.04203  0.03642 -0.01012 -0.00172

reduced mass(g/mol)     9.599    9.599   10.526   11.514   11.514   10.987


       mode              79       80       81       82       83       84

     frequency        1758.42  1797.28  1797.28  3021.22  3021.24  3021.24

     symmetry            a        e        e        a        e        e   

        IR               YES      YES      YES      YES      YES      YES
|dDIP/dQ|   (a.u.)     0.0000   0.0046   0.0046   0.0000   0.0029   0.0029
intensity (km/mol)       0.00    37.66    37.66     0.00    14.63    14.63
intensity (  %   )       0.00    80.91    80.91     0.00    31.43    31.43
 
       RAMAN             YES      YES      YES      YES      YES      YES
 
  1   c           x   0.39677 -0.30648  0.39306 -0.00034 -0.00030  0.00007
                  y   0.04146  0.13338  0.21182 -0.00020 -0.00021 -0.00001
                  z   0.00003 -0.00001  0.00008 -0.00000  0.00000  0.00000
  2   c           x   0.07155  0.09839 -0.25483 -0.00030 -0.00035 -0.00010
                  y   0.36913 -0.30119 -0.36076 -0.00039 -0.00045 -0.00011
                  z   0.00006 -0.00003 -0.00015  0.00000  0.00000  0.00000
  3   c           x  -0.35545  0.27510 -0.40321  0.00048 -0.00016 -0.00056
                  y  -0.12260 -0.15281 -0.18405 -0.00006  0.00001  0.00009
                  z   0.00006 -0.00011  0.00010  0.00000  0.00000 -0.00000
  4   c           x  -0.23429 -0.34793  0.15731  0.00034 -0.00019 -0.00027
                  y   0.32288  0.36913  0.17037 -0.00019  0.00013  0.00010
                  z   0.00003  0.00008 -0.00004 -0.00000 -0.00000 -0.00000
  5   c           x   0.28390  0.31524 -0.17599 -0.00019  0.00014 -0.00017
                  y  -0.24653 -0.38003 -0.14391  0.00045 -0.00039  0.00039
                  z   0.00006  0.00014  0.00004  0.00000 -0.00000  0.00000
  6   c           x  -0.16247 -0.12304  0.23929 -0.00001  0.00005 -0.00001
                  y  -0.36434  0.28716  0.39526  0.00039 -0.00013  0.00034
                  z   0.00003 -0.00007 -0.00005 -0.00000 -0.00000  0.00000
  7   c           x   0.07722 -0.09085  0.07676 -0.00005 -0.00002  0.00003
                  y  -0.03877  0.04468  0.01262 -0.00060  0.00020  0.00067
                  z  -0.00005  0.00004 -0.00004  0.00000  0.00000 -0.00000
  8   c           x  -0.04446  0.04066 -0.06209  0.00042  0.00011 -0.00026
                  y  -0.01120  0.01957 -0.02527 -0.00010  0.00003  0.00007
                  z  -0.00001  0.00000 -0.00002  0.00000  0.00000 -0.00000
  9   n           x   0.02999 -0.02991  0.05411 -0.00016  0.00006  0.00019
                  y   0.00771 -0.00160 -0.00529  0.00017  0.00034  0.00009
                  z   0.00001  0.00000  0.00001  0.00000  0.00000 -0.00000
 10   c           x  -0.06963  0.03817 -0.10624  0.00014  0.00004 -0.00009
                  y  -0.09242 -0.01676 -0.08824 -0.00054 -0.00064 -0.00001
                  z  -0.00003 -0.00001 -0.00003  0.00000  0.00000  0.00000
 11   c           x  -0.01028  0.01407 -0.00209  0.03014  0.04225  0.00571
                  y  -0.00704  0.00916  0.00812  0.02590  0.03630  0.00490
                  z  -0.00002  0.00002  0.00000 -0.00009 -0.00012 -0.00002
 12   c           x  -0.07219 -0.01829  0.08657 -0.00050 -0.00059 -0.00012
                  y  -0.04749  0.03487  0.08518  0.00035  0.00035  0.00011
                  z  -0.00005  0.00002  0.00005  0.00000  0.00000  0.00000
 13   c           x   0.01253 -0.00624 -0.00751 -0.00030 -0.00015 -0.00012
                  y   0.04410 -0.03501 -0.07218 -0.00032 -0.00011 -0.00019
                  z  -0.00001  0.00002  0.00001  0.00000  0.00000  0.00000
 14   n           x  -0.00832  0.02061  0.02757  0.00022 -0.00012  0.00023
                  y  -0.02983  0.02494  0.04523  0.00005  0.00029 -0.00009
                  z   0.00001 -0.00001 -0.00000  0.00000 -0.00000  0.00000
 15   c           x  -0.04522  0.03697 -0.01745 -0.00053  0.00026 -0.00051
                  y   0.10651 -0.10555 -0.08943  0.00015 -0.00021  0.00021
                  z  -0.00003  0.00003  0.00000  0.00000 -0.00000  0.00000
 16   c           x  -0.00095 -0.00744 -0.00326  0.00736 -0.00636  0.00824
                  y   0.01242  0.01033 -0.01339 -0.03905  0.03377 -0.04371
                  z  -0.00002 -0.00001  0.00002 -0.00009  0.00008 -0.00010
 17   c           x  -0.00504 -0.04607  0.01883  0.00055 -0.00043  0.00044
                  y   0.08626  0.10261  0.05740  0.00026 -0.00021  0.00026
                  z  -0.00005 -0.00005 -0.00001  0.00000 -0.00000  0.00000
 18   c           x   0.01123  0.00230  0.01595 -0.03750  0.02013  0.04907
                  y  -0.00539 -0.00888 -0.00365  0.01315 -0.00705 -0.01721
                  z  -0.00002 -0.00001 -0.00002 -0.00009  0.00005  0.00011
 19   c           x   0.11485  0.11447 -0.06081  0.00039 -0.00022 -0.00049
                  y  -0.01409 -0.06219 -0.01194  0.00039 -0.00024 -0.00027
                  z  -0.00003 -0.00002  0.00003  0.00000 -0.00000 -0.00000
 20   n           x  -0.02168 -0.02763 -0.00292 -0.00007  0.00001  0.00036
                  y   0.02212  0.05542 -0.00301 -0.00022  0.00016  0.00004
                  z   0.00001  0.00001 -0.00001  0.00000 -0.00000 -0.00000
 21   c           x   0.03193  0.06448  0.00582 -0.00013  0.00010  0.00004
                  y  -0.03290 -0.04834 -0.00146  0.00041 -0.00026  0.00006
                  z  -0.00001 -0.00002  0.00001  0.00000 -0.00000  0.00000
 22   h           x  -0.07685 -0.09392 -0.01759 -0.00258  0.00185 -0.00198
                  y   0.02801  0.04735  0.01346 -0.00503  0.00379 -0.00511
                  z   0.00001  0.00000  0.00003 -0.00000 -0.00000 -0.00000
 23   h           x  -0.01635  0.00718  0.00621  0.22079 -0.11851 -0.28887
                  y   0.00850  0.01084 -0.00498 -0.07735  0.04154  0.10119
                  z   0.02621  0.00135  0.01070  0.33443 -0.17953 -0.43758
 24   h           x  -0.01636  0.00720  0.00618  0.21926 -0.11769 -0.28687
                  y   0.00846  0.01084 -0.00501 -0.07688  0.04129  0.10058
                  z  -0.02619 -0.00135 -0.01074 -0.33340  0.17898  0.43623
 25   h           x   0.06268 -0.06170  0.06595 -0.00307  0.00179  0.00376
                  y   0.05254 -0.03619  0.04568  0.00475 -0.00195 -0.00517
                  z   0.00001 -0.00003 -0.00001 -0.00000  0.00000  0.00000
 26   h           x   0.01416 -0.00545 -0.00372  0.00565  0.00680  0.00094
                  y  -0.08056  0.03348  0.10193  0.00028  0.00087 -0.00016
                  z   0.00001  0.00002 -0.00002 -0.00000 -0.00000  0.00000
 27   h           x   0.01551  0.00354  0.00873 -0.17621 -0.24696 -0.03334
                  y   0.00993  0.00830 -0.00867 -0.15145 -0.21224 -0.02868
                  z  -0.02619  0.00998  0.00420 -0.33340 -0.46727 -0.06311
 28   h           x   0.01553  0.00353  0.00873 -0.17738 -0.24860 -0.03357
                  y   0.00991  0.00832 -0.00863 -0.15254 -0.21377 -0.02889
                  z   0.02621 -0.00995 -0.00418  0.33443  0.46872  0.06331
 29   h           x   0.00085  0.00758  0.01062 -0.04305  0.03724 -0.04816
                  y  -0.01839  0.00640 -0.00464  0.22833 -0.19742  0.25551
                  z  -0.02619 -0.00862  0.00654 -0.33340  0.28829 -0.37311
 30   h           x   0.00082  0.00753  0.01063 -0.04341  0.03755 -0.04856
                  y  -0.01841  0.00642 -0.00462  0.22988 -0.19877  0.25726
                  z   0.02621  0.00859 -0.00652  0.33443 -0.28919  0.37427

reduced mass(g/mol)    11.728   11.820   11.820    1.060    1.060    1.060


       mode              85       86       87       88       89       90

     frequency        3079.70  3079.70  3079.80  3129.68  3129.68  3129.87

     symmetry            e        e        a        e        e        a   

        IR               YES      YES      YES      YES      YES      YES
|dDIP/dQ|   (a.u.)     0.0000   0.0000   0.0022   0.0051   0.0051   0.0000
intensity (km/mol)       0.00     0.00     8.48    46.54    46.54     0.00
intensity (  %   )       0.00     0.00    18.23   100.00   100.00     0.00
 
       RAMAN             YES      YES      YES      YES      YES      YES
 
  1   c           x  -0.00000 -0.00000  0.00000  0.00005 -0.00005  0.00006
                  y   0.00000 -0.00000  0.00000  0.00002 -0.00013 -0.00003
                  z   0.00032  0.00005 -0.00029 -0.00000 -0.00000 -0.00000
  2   c           x   0.00000  0.00000  0.00000 -0.00048  0.00058 -0.00058
                  y  -0.00000  0.00000  0.00000 -0.00022  0.00019 -0.00010
                  z   0.00027 -0.00008 -0.00021 -0.00000  0.00000 -0.00000
  3   c           x  -0.00000  0.00000 -0.00000  0.00018  0.00060  0.00038
                  y  -0.00000  0.00000 -0.00000 -0.00020 -0.00046 -0.00045
                  z  -0.00007  0.00027 -0.00021 -0.00000 -0.00000 -0.00000
  4   c           x  -0.00000  0.00000 -0.00000 -0.00010 -0.00011 -0.00001
                  y   0.00000 -0.00000  0.00000 -0.00003  0.00002  0.00007
                  z  -0.00020  0.00026 -0.00029  0.00000  0.00000 -0.00000
  5   c           x   0.00000  0.00000  0.00000 -0.00013  0.00002  0.00020
                  y  -0.00000 -0.00000 -0.00000 -0.00078 -0.00016  0.00056
                  z  -0.00020 -0.00019 -0.00021  0.00000  0.00000 -0.00000
  6   c           x  -0.00000 -0.00000 -0.00000 -0.00007  0.00005 -0.00005
                  y  -0.00000 -0.00000 -0.00000  0.00012 -0.00001 -0.00004
                  z  -0.00012 -0.00030 -0.00029 -0.00000  0.00000 -0.00000
  7   c           x   0.00000 -0.00000  0.00000 -0.00024 -0.00087 -0.00061
                  y   0.00000 -0.00000  0.00000 -0.00033 -0.00149 -0.00109
                  z   0.00023 -0.00052  0.00039  0.00000  0.00000  0.00000
  8   c           x  -0.00000  0.00000 -0.00000 -0.00858 -0.03480 -0.02533
                  y   0.00000 -0.00000  0.00000  0.01455  0.05916  0.04306
                  z   0.00006 -0.00007  0.00002 -0.00000 -0.00002 -0.00001
  9   n           x  -0.00000 -0.00000 -0.00000 -0.00016 -0.00080 -0.00053
                  y   0.00000 -0.00000 -0.00000 -0.00011 -0.00045 -0.00034
                  z  -0.00006  0.00006 -0.00001  0.00000  0.00000  0.00000
 10   c           x   0.00000 -0.00000 -0.00000  0.00026  0.00105  0.00075
                  y  -0.00000  0.00000  0.00000 -0.00025 -0.00054 -0.00054
                  z  -0.00050  0.00005  0.00037 -0.00000 -0.00000 -0.00000
 11   c           x   0.00005 -0.00001 -0.00003  0.00038 -0.00037  0.00039
                  y   0.00003 -0.00000 -0.00002  0.00025 -0.00026  0.00028
                  z   0.07708 -0.00983 -0.05493  0.00000 -0.00000  0.00000
 12   c           x   0.00000  0.00000 -0.00000 -0.00066  0.00057 -0.00064
                  y   0.00001 -0.00000 -0.00000  0.00111 -0.00107  0.00107
                  z  -0.00056  0.00006  0.00039  0.00000 -0.00000  0.00000
 13   c           x  -0.00000  0.00000  0.00000  0.05100 -0.04894  0.04995
                  y  -0.00000  0.00000  0.00000  0.00040 -0.00041  0.00041
                  z  -0.00009 -0.00002  0.00002 -0.00001  0.00001 -0.00001
 14   n           x  -0.00000 -0.00000 -0.00000  0.00001  0.00000 -0.00003
                  y   0.00000  0.00000  0.00000  0.00070 -0.00062  0.00062
                  z   0.00008  0.00002 -0.00001  0.00000 -0.00000  0.00000
 15   c           x   0.00000  0.00000  0.00000 -0.00069  0.00080 -0.00084
                  y   0.00000  0.00000  0.00000 -0.00050  0.00041 -0.00039
                  z   0.00029  0.00041  0.00037  0.00000  0.00000 -0.00000
 16   c           x  -0.00000 -0.00000 -0.00000 -0.00004 -0.00000  0.00004
                  y   0.00003  0.00005  0.00004  0.00062  0.00016 -0.00048
                  z  -0.04705 -0.06184 -0.05493 -0.00000 -0.00000  0.00000
 17   c           x  -0.00000 -0.00000 -0.00000 -0.00170 -0.00051  0.00125
                  y   0.00000  0.00000  0.00000  0.00003 -0.00004  0.00002
                  z   0.00034  0.00046  0.00039 -0.00000  0.00000  0.00000
 18   c           x   0.00002 -0.00005  0.00004 -0.00015 -0.00055 -0.00044
                  y  -0.00001  0.00002 -0.00002  0.00007  0.00027  0.00020
                  z  -0.03003  0.07166 -0.05493  0.00000  0.00000  0.00000
 19   c           x  -0.00000  0.00000 -0.00000  0.00000  0.00010  0.00009
                  y  -0.00000  0.00000 -0.00000 -0.00120 -0.00029  0.00092
                  z   0.00021 -0.00046  0.00037  0.00000 -0.00000 -0.00000
 20   n           x   0.00000 -0.00000  0.00000 -0.00077 -0.00025  0.00055
                  y   0.00000 -0.00000  0.00000  0.00045  0.00016 -0.00029
                  z  -0.00002 -0.00008 -0.00001 -0.00000 -0.00000  0.00000
 21   c           x  -0.00000 -0.00000 -0.00000  0.03346  0.00972 -0.02462
                  y  -0.00000 -0.00000 -0.00000  0.05907  0.01713 -0.04347
                  z   0.00003  0.00009  0.00002  0.00002  0.00000 -0.00001
 22   h           x   0.00001  0.00001  0.00001 -0.36858 -0.10688  0.27132
                  y   0.00002  0.00002  0.00003 -0.68884 -0.19961  0.50714
                  z  -0.00004  0.00010 -0.00007 -0.00018 -0.00005  0.00014
 23   h           x   0.12518 -0.29871  0.22906  0.00068  0.00283  0.00244
                  y  -0.04401  0.10494 -0.08049  0.00013 -0.00030 -0.00047
                  z   0.17753 -0.42361  0.32475  0.00082  0.00351  0.00304
 24   h           x  -0.12544  0.29932 -0.22953  0.00068  0.00284  0.00245
                  y   0.04413 -0.10524  0.08072  0.00013 -0.00030 -0.00047
                  z   0.17858 -0.42612  0.32666 -0.00082 -0.00354 -0.00306
 25   h           x   0.00001 -0.00002  0.00002  0.10271  0.41675  0.30354
                  y  -0.00001  0.00003 -0.00003 -0.16521 -0.67089 -0.48854
                  z   0.00010 -0.00001 -0.00007  0.00005  0.00019  0.00014
 26   h           x   0.00003 -0.00001 -0.00003 -0.58641  0.56308 -0.57485
                  y   0.00000  0.00000 -0.00000 -0.01888  0.01822 -0.01860
                  z  -0.00006 -0.00008 -0.00007  0.00014 -0.00013  0.00014
 27   h           x  -0.25901  0.03299  0.18467 -0.00134  0.00104 -0.00163
                  y  -0.22221  0.02833  0.15841 -0.00167  0.00172 -0.00189
                  z  -0.45832  0.05841  0.32666 -0.00265  0.00248 -0.00306
 28   h           x   0.25840 -0.03291 -0.18424 -0.00133  0.00104 -0.00162
                  y   0.22180 -0.02828 -0.15813 -0.00167  0.00172 -0.00188
                  z  -0.45562  0.05806  0.32475  0.00263 -0.00247  0.00304
 29   h           x   0.03843  0.05048  0.04485  0.00123  0.00019 -0.00082
                  y  -0.20471 -0.26911 -0.23914 -0.00253 -0.00085  0.00236
                  z   0.27974  0.36771  0.32666  0.00348  0.00106 -0.00306
 30   h           x  -0.03840 -0.05044 -0.04482  0.00123  0.00019 -0.00082
                  y   0.20427  0.26852  0.23862 -0.00252 -0.00085  0.00235
                  z   0.27809  0.36555  0.32475 -0.00345 -0.00105  0.00304

reduced mass(g/mol)     1.108    1.108    1.108    1.091    1.091    1.090
 

         **************************************************************
         *                                                            *
         *  zero point VIBRATIONAL energy  :      0.2190179  Hartree  *
         *    SCF-energy                   :   -855.0349807           *
         *    SCF + E(vib0)                :   -854.8159628           *
         *                                                            *
         **************************************************************




 time elapsed for vibrational analysis     1.38 sec


    ------------------------------------------------------------------------
         total  cpu-time : 49 minutes and  0 seconds
         total wall-time :  6 minutes and 35 seconds
    ------------------------------------------------------------------------

   ****  force : all done  ****


    2018-03-23 00:09:23.006 

