[Molden Format]
[Title]
                                                                                
[Atoms] AU
 c     1    6 -.86768375284872E+00 -.24455356093331E+01 0.88973470720000E-03
 c     2    6 -.25768094324134E+01 -.44585401801321E+00 0.85252080732000E-03
 c     3    6 0.16745256221855E+01 -.20086554201748E+01 0.85252080732000E-03
 c     4    6 0.25517378399663E+01 0.47133163224856E+00 0.88973470720000E-03
 c     5    6 0.90228381022791E+00 0.24545094381880E+01 0.85252080732000E-03
 c     6    6 -.16840540871176E+01 0.19742039770846E+01 0.88973470720000E-03
 c     7    6 0.35251959977426E+01 -.38414734560116E+01 0.19589076503000E-03
 c     8    6 0.23261581108367E+01 -.62922513031337E+01 0.30514426430000E-03
 n     9    7 -.27611391238983E+00 -.67642903742391E+01 0.10813929791000E-03
 c    10    6 -.19330506492717E+01 -.48016837161256E+01 0.22416815550000E-03
 c    11    6 -.49471272394373E+01 -.41976530417443E+01 -.52183299416000E-03
 c    12    6 -.50894115997409E+01 -.11321725593585E+01 0.19589076503000E-03
 c    13    6 -.66123285309279E+01 0.11316136343630E+01 0.30514426430000E-03
 n    14    7 -.57199903464707E+01 0.36212668495875E+01 0.10813929791000E-03
 c    15    6 -.31918547544670E+01 0.40749128271341E+01 0.22416815550000E-03
 c    16    6 -.11617105507049E+01 0.63831643859789E+01 -.52183299416000E-03
 c    17    6 0.15642156019983E+01 0.49736460153701E+01 0.19589076503000E-03
 c    18    6 0.61088377901422E+01 -.21855113442346E+01 -.52183299416000E-03
 c    19    6 0.51249054037387E+01 0.72677088899146E+00 0.22416815550000E-03
 n    20    7 0.59961042588605E+01 0.31430235246516E+01 0.10813929791000E-03
 c    21    6 0.42861704200912E+01 0.51606376687707E+01 0.30514426430000E-03
 h    22    1 0.52454629147877E+01 0.70019353810637E+01 0.61379607016000E-03
 h    23    1 0.72807979076036E+01 -.25941453243223E+01 0.16817154772231E+01
 h    24    1 0.72787204277477E+01 -.25933049095734E+01 -.16843830382963E+01
 h    25    1 0.34411224582644E+01 -.80436718293472E+01 0.61379607016000E-03
 h    26    1 -.86865853730521E+01 0.10417364482834E+01 0.61379607016000E-03
 h    27    1 -.58852281453233E+01 -.50069043426876E+01 -.16843830382963E+01
 h    28    1 -.58869947057735E+01 -.50082832856441E+01 0.16817154772231E+01
 h    29    1 -.13934922824244E+01 0.76002092522609E+01 -.16843830382963E+01
 h    30    1 -.13938032018301E+01 0.76024286099665E+01 0.16817154772231E+01
[GTO]
    1 0
 s    5 1.00
 0.12384016938000E+04 0.55173650481097E-02
 0.18629004992000E+03 0.41088828555946E-01
 0.42251176346000E+02 0.18225382126490E+00
 0.11676557932000E+02 0.46828459437429E+00
 0.35930506482000E+01 0.44575817336002E+00
 s    1 1.00
 0.40245147363000E+00 0.10000000000000E+01
 s    1 1.00
 0.13090182668000E+00 0.10000000000000E+01
 p    3 1.00
 0.94680970621000E+01 0.56888332011037E-01
 0.20103545142000E+01 0.31294059336471E+00
 0.54771004707000E+00 0.76065016509135E+00
 p    1 1.00
 0.15268613795000E+00 0.10000000000000E+01
 d    1 1.00
 0.80000000000000E+00 0.10000000000000E+01
 
    2 0
 s    5 1.00
 0.12384016938000E+04 0.55173650481097E-02
 0.18629004992000E+03 0.41088828555946E-01
 0.42251176346000E+02 0.18225382126490E+00
 0.11676557932000E+02 0.46828459437429E+00
 0.35930506482000E+01 0.44575817336002E+00
 s    1 1.00
 0.40245147363000E+00 0.10000000000000E+01
 s    1 1.00
 0.13090182668000E+00 0.10000000000000E+01
 p    3 1.00
 0.94680970621000E+01 0.56888332011037E-01
 0.20103545142000E+01 0.31294059336471E+00
 0.54771004707000E+00 0.76065016509135E+00
 p    1 1.00
 0.15268613795000E+00 0.10000000000000E+01
 d    1 1.00
 0.80000000000000E+00 0.10000000000000E+01
 
    3 0
 s    5 1.00
 0.12384016938000E+04 0.55173650481097E-02
 0.18629004992000E+03 0.41088828555946E-01
 0.42251176346000E+02 0.18225382126490E+00
 0.11676557932000E+02 0.46828459437429E+00
 0.35930506482000E+01 0.44575817336002E+00
 s    1 1.00
 0.40245147363000E+00 0.10000000000000E+01
 s    1 1.00
 0.13090182668000E+00 0.10000000000000E+01
 p    3 1.00
 0.94680970621000E+01 0.56888332011037E-01
 0.20103545142000E+01 0.31294059336471E+00
 0.54771004707000E+00 0.76065016509135E+00
 p    1 1.00
 0.15268613795000E+00 0.10000000000000E+01
 d    1 1.00
 0.80000000000000E+00 0.10000000000000E+01
 
    4 0
 s    5 1.00
 0.12384016938000E+04 0.55173650481097E-02
 0.18629004992000E+03 0.41088828555946E-01
 0.42251176346000E+02 0.18225382126490E+00
 0.11676557932000E+02 0.46828459437429E+00
 0.35930506482000E+01 0.44575817336002E+00
 s    1 1.00
 0.40245147363000E+00 0.10000000000000E+01
 s    1 1.00
 0.13090182668000E+00 0.10000000000000E+01
 p    3 1.00
 0.94680970621000E+01 0.56888332011037E-01
 0.20103545142000E+01 0.31294059336471E+00
 0.54771004707000E+00 0.76065016509135E+00
 p    1 1.00
 0.15268613795000E+00 0.10000000000000E+01
 d    1 1.00
 0.80000000000000E+00 0.10000000000000E+01
 
    5 0
 s    5 1.00
 0.12384016938000E+04 0.55173650481097E-02
 0.18629004992000E+03 0.41088828555946E-01
 0.42251176346000E+02 0.18225382126490E+00
 0.11676557932000E+02 0.46828459437429E+00
 0.35930506482000E+01 0.44575817336002E+00
 s    1 1.00
 0.40245147363000E+00 0.10000000000000E+01
 s    1 1.00
 0.13090182668000E+00 0.10000000000000E+01
 p    3 1.00
 0.94680970621000E+01 0.56888332011037E-01
 0.20103545142000E+01 0.31294059336471E+00
 0.54771004707000E+00 0.76065016509135E+00
 p    1 1.00
 0.15268613795000E+00 0.10000000000000E+01
 d    1 1.00
 0.80000000000000E+00 0.10000000000000E+01
 
    6 0
 s    5 1.00
 0.12384016938000E+04 0.55173650481097E-02
 0.18629004992000E+03 0.41088828555946E-01
 0.42251176346000E+02 0.18225382126490E+00
 0.11676557932000E+02 0.46828459437429E+00
 0.35930506482000E+01 0.44575817336002E+00
 s    1 1.00
 0.40245147363000E+00 0.10000000000000E+01
 s    1 1.00
 0.13090182668000E+00 0.10000000000000E+01
 p    3 1.00
 0.94680970621000E+01 0.56888332011037E-01
 0.20103545142000E+01 0.31294059336471E+00
 0.54771004707000E+00 0.76065016509135E+00
 p    1 1.00
 0.15268613795000E+00 0.10000000000000E+01
 d    1 1.00
 0.80000000000000E+00 0.10000000000000E+01
 
    7 0
 s    5 1.00
 0.12384016938000E+04 0.55173650481097E-02
 0.18629004992000E+03 0.41088828555946E-01
 0.42251176346000E+02 0.18225382126490E+00
 0.11676557932000E+02 0.46828459437429E+00
 0.35930506482000E+01 0.44575817336002E+00
 s    1 1.00
 0.40245147363000E+00 0.10000000000000E+01
 s    1 1.00
 0.13090182668000E+00 0.10000000000000E+01
 p    3 1.00
 0.94680970621000E+01 0.56888332011037E-01
 0.20103545142000E+01 0.31294059336471E+00
 0.54771004707000E+00 0.76065016509135E+00
 p    1 1.00
 0.15268613795000E+00 0.10000000000000E+01
 d    1 1.00
 0.80000000000000E+00 0.10000000000000E+01
 
    8 0
 s    5 1.00
 0.12384016938000E+04 0.55173650481097E-02
 0.18629004992000E+03 0.41088828555946E-01
 0.42251176346000E+02 0.18225382126490E+00
 0.11676557932000E+02 0.46828459437429E+00
 0.35930506482000E+01 0.44575817336002E+00
 s    1 1.00
 0.40245147363000E+00 0.10000000000000E+01
 s    1 1.00
 0.13090182668000E+00 0.10000000000000E+01
 p    3 1.00
 0.94680970621000E+01 0.56888332011037E-01
 0.20103545142000E+01 0.31294059336471E+00
 0.54771004707000E+00 0.76065016509135E+00
 p    1 1.00
 0.15268613795000E+00 0.10000000000000E+01
 d    1 1.00
 0.80000000000000E+00 0.10000000000000E+01
 
    9 0
 s    5 1.00
 0.17128415853000E+04 -.54477995804909E-02
 0.25764812677000E+03 -.40627174632423E-01
 0.58458245853000E+02 -.18111962250584E+00
 0.16198367905000E+02 -.46843975563173E+00
 0.50052600809000E+01 -.44616846289231E+00
 s    1 1.00
 0.58731856571000E+00 0.10000000000000E+01
 s    1 1.00
 0.18764592253000E+00 0.10000000000000E+01
 p    3 1.00
 0.13571470233000E+02 -.58848116969522E-01
 0.29257372874000E+01 -.32024624762471E+00
 0.79927750754000E+00 -.75328226520436E+00
 p    1 1.00
 0.21954348034000E+00 0.10000000000000E+01
 d    1 1.00
 0.10000000000000E+01 0.10000000000000E+01
 
   10 0
 s    5 1.00
 0.12384016938000E+04 0.55173650481097E-02
 0.18629004992000E+03 0.41088828555946E-01
 0.42251176346000E+02 0.18225382126490E+00
 0.11676557932000E+02 0.46828459437429E+00
 0.35930506482000E+01 0.44575817336002E+00
 s    1 1.00
 0.40245147363000E+00 0.10000000000000E+01
 s    1 1.00
 0.13090182668000E+00 0.10000000000000E+01
 p    3 1.00
 0.94680970621000E+01 0.56888332011037E-01
 0.20103545142000E+01 0.31294059336471E+00
 0.54771004707000E+00 0.76065016509135E+00
 p    1 1.00
 0.15268613795000E+00 0.10000000000000E+01
 d    1 1.00
 0.80000000000000E+00 0.10000000000000E+01
 
   11 0
 s    5 1.00
 0.12384016938000E+04 0.55173650481097E-02
 0.18629004992000E+03 0.41088828555946E-01
 0.42251176346000E+02 0.18225382126490E+00
 0.11676557932000E+02 0.46828459437429E+00
 0.35930506482000E+01 0.44575817336002E+00
 s    1 1.00
 0.40245147363000E+00 0.10000000000000E+01
 s    1 1.00
 0.13090182668000E+00 0.10000000000000E+01
 p    3 1.00
 0.94680970621000E+01 0.56888332011037E-01
 0.20103545142000E+01 0.31294059336471E+00
 0.54771004707000E+00 0.76065016509135E+00
 p    1 1.00
 0.15268613795000E+00 0.10000000000000E+01
 d    1 1.00
 0.80000000000000E+00 0.10000000000000E+01
 
   12 0
 s    5 1.00
 0.12384016938000E+04 0.55173650481097E-02
 0.18629004992000E+03 0.41088828555946E-01
 0.42251176346000E+02 0.18225382126490E+00
 0.11676557932000E+02 0.46828459437429E+00
 0.35930506482000E+01 0.44575817336002E+00
 s    1 1.00
 0.40245147363000E+00 0.10000000000000E+01
 s    1 1.00
 0.13090182668000E+00 0.10000000000000E+01
 p    3 1.00
 0.94680970621000E+01 0.56888332011037E-01
 0.20103545142000E+01 0.31294059336471E+00
 0.54771004707000E+00 0.76065016509135E+00
 p    1 1.00
 0.15268613795000E+00 0.10000000000000E+01
 d    1 1.00
 0.80000000000000E+00 0.10000000000000E+01
 
   13 0
 s    5 1.00
 0.12384016938000E+04 0.55173650481097E-02
 0.18629004992000E+03 0.41088828555946E-01
 0.42251176346000E+02 0.18225382126490E+00
 0.11676557932000E+02 0.46828459437429E+00
 0.35930506482000E+01 0.44575817336002E+00
 s    1 1.00
 0.40245147363000E+00 0.10000000000000E+01
 s    1 1.00
 0.13090182668000E+00 0.10000000000000E+01
 p    3 1.00
 0.94680970621000E+01 0.56888332011037E-01
 0.20103545142000E+01 0.31294059336471E+00
 0.54771004707000E+00 0.76065016509135E+00
 p    1 1.00
 0.15268613795000E+00 0.10000000000000E+01
 d    1 1.00
 0.80000000000000E+00 0.10000000000000E+01
 
   14 0
 s    5 1.00
 0.17128415853000E+04 -.54477995804909E-02
 0.25764812677000E+03 -.40627174632423E-01
 0.58458245853000E+02 -.18111962250584E+00
 0.16198367905000E+02 -.46843975563173E+00
 0.50052600809000E+01 -.44616846289231E+00
 s    1 1.00
 0.58731856571000E+00 0.10000000000000E+01
 s    1 1.00
 0.18764592253000E+00 0.10000000000000E+01
 p    3 1.00
 0.13571470233000E+02 -.58848116969522E-01
 0.29257372874000E+01 -.32024624762471E+00
 0.79927750754000E+00 -.75328226520436E+00
 p    1 1.00
 0.21954348034000E+00 0.10000000000000E+01
 d    1 1.00
 0.10000000000000E+01 0.10000000000000E+01
 
   15 0
 s    5 1.00
 0.12384016938000E+04 0.55173650481097E-02
 0.18629004992000E+03 0.41088828555946E-01
 0.42251176346000E+02 0.18225382126490E+00
 0.11676557932000E+02 0.46828459437429E+00
 0.35930506482000E+01 0.44575817336002E+00
 s    1 1.00
 0.40245147363000E+00 0.10000000000000E+01
 s    1 1.00
 0.13090182668000E+00 0.10000000000000E+01
 p    3 1.00
 0.94680970621000E+01 0.56888332011037E-01
 0.20103545142000E+01 0.31294059336471E+00
 0.54771004707000E+00 0.76065016509135E+00
 p    1 1.00
 0.15268613795000E+00 0.10000000000000E+01
 d    1 1.00
 0.80000000000000E+00 0.10000000000000E+01
 
   16 0
 s    5 1.00
 0.12384016938000E+04 0.55173650481097E-02
 0.18629004992000E+03 0.41088828555946E-01
 0.42251176346000E+02 0.18225382126490E+00
 0.11676557932000E+02 0.46828459437429E+00
 0.35930506482000E+01 0.44575817336002E+00
 s    1 1.00
 0.40245147363000E+00 0.10000000000000E+01
 s    1 1.00
 0.13090182668000E+00 0.10000000000000E+01
 p    3 1.00
 0.94680970621000E+01 0.56888332011037E-01
 0.20103545142000E+01 0.31294059336471E+00
 0.54771004707000E+00 0.76065016509135E+00
 p    1 1.00
 0.15268613795000E+00 0.10000000000000E+01
 d    1 1.00
 0.80000000000000E+00 0.10000000000000E+01
 
   17 0
 s    5 1.00
 0.12384016938000E+04 0.55173650481097E-02
 0.18629004992000E+03 0.41088828555946E-01
 0.42251176346000E+02 0.18225382126490E+00
 0.11676557932000E+02 0.46828459437429E+00
 0.35930506482000E+01 0.44575817336002E+00
 s    1 1.00
 0.40245147363000E+00 0.10000000000000E+01
 s    1 1.00
 0.13090182668000E+00 0.10000000000000E+01
 p    3 1.00
 0.94680970621000E+01 0.56888332011037E-01
 0.20103545142000E+01 0.31294059336471E+00
 0.54771004707000E+00 0.76065016509135E+00
 p    1 1.00
 0.15268613795000E+00 0.10000000000000E+01
 d    1 1.00
 0.80000000000000E+00 0.10000000000000E+01
 
   18 0
 s    5 1.00
 0.12384016938000E+04 0.55173650481097E-02
 0.18629004992000E+03 0.41088828555946E-01
 0.42251176346000E+02 0.18225382126490E+00
 0.11676557932000E+02 0.46828459437429E+00
 0.35930506482000E+01 0.44575817336002E+00
 s    1 1.00
 0.40245147363000E+00 0.10000000000000E+01
 s    1 1.00
 0.13090182668000E+00 0.10000000000000E+01
 p    3 1.00
 0.94680970621000E+01 0.56888332011037E-01
 0.20103545142000E+01 0.31294059336471E+00
 0.54771004707000E+00 0.76065016509135E+00
 p    1 1.00
 0.15268613795000E+00 0.10000000000000E+01
 d    1 1.00
 0.80000000000000E+00 0.10000000000000E+01
 
   19 0
 s    5 1.00
 0.12384016938000E+04 0.55173650481097E-02
 0.18629004992000E+03 0.41088828555946E-01
 0.42251176346000E+02 0.18225382126490E+00
 0.11676557932000E+02 0.46828459437429E+00
 0.35930506482000E+01 0.44575817336002E+00
 s    1 1.00
 0.40245147363000E+00 0.10000000000000E+01
 s    1 1.00
 0.13090182668000E+00 0.10000000000000E+01
 p    3 1.00
 0.94680970621000E+01 0.56888332011037E-01
 0.20103545142000E+01 0.31294059336471E+00
 0.54771004707000E+00 0.76065016509135E+00
 p    1 1.00
 0.15268613795000E+00 0.10000000000000E+01
 d    1 1.00
 0.80000000000000E+00 0.10000000000000E+01
 
   20 0
 s    5 1.00
 0.17128415853000E+04 -.54477995804909E-02
 0.25764812677000E+03 -.40627174632423E-01
 0.58458245853000E+02 -.18111962250584E+00
 0.16198367905000E+02 -.46843975563173E+00
 0.50052600809000E+01 -.44616846289231E+00
 s    1 1.00
 0.58731856571000E+00 0.10000000000000E+01
 s    1 1.00
 0.18764592253000E+00 0.10000000000000E+01
 p    3 1.00
 0.13571470233000E+02 -.58848116969522E-01
 0.29257372874000E+01 -.32024624762471E+00
 0.79927750754000E+00 -.75328226520436E+00
 p    1 1.00
 0.21954348034000E+00 0.10000000000000E+01
 d    1 1.00
 0.10000000000000E+01 0.10000000000000E+01
 
   21 0
 s    5 1.00
 0.12384016938000E+04 0.55173650481097E-02
 0.18629004992000E+03 0.41088828555946E-01
 0.42251176346000E+02 0.18225382126490E+00
 0.11676557932000E+02 0.46828459437429E+00
 0.35930506482000E+01 0.44575817336002E+00
 s    1 1.00
 0.40245147363000E+00 0.10000000000000E+01
 s    1 1.00
 0.13090182668000E+00 0.10000000000000E+01
 p    3 1.00
 0.94680970621000E+01 0.56888332011037E-01
 0.20103545142000E+01 0.31294059336471E+00
 0.54771004707000E+00 0.76065016509135E+00
 p    1 1.00
 0.15268613795000E+00 0.10000000000000E+01
 d    1 1.00
 0.80000000000000E+00 0.10000000000000E+01
 
   22 0
 s    3 1.00
 0.13010701000000E+02 0.33485484812989E-01
 0.19622572000000E+01 0.23472187088125E+00
 0.44453796000000E+00 0.81377028525955E+00
 s    1 1.00
 0.12194962000000E+00 0.10000000000000E+01
 
   23 0
 s    3 1.00
 0.13010701000000E+02 0.33485484812989E-01
 0.19622572000000E+01 0.23472187088125E+00
 0.44453796000000E+00 0.81377028525955E+00
 s    1 1.00
 0.12194962000000E+00 0.10000000000000E+01
 
   24 0
 s    3 1.00
 0.13010701000000E+02 0.33485484812989E-01
 0.19622572000000E+01 0.23472187088125E+00
 0.44453796000000E+00 0.81377028525955E+00
 s    1 1.00
 0.12194962000000E+00 0.10000000000000E+01
 
   25 0
 s    3 1.00
 0.13010701000000E+02 0.33485484812989E-01
 0.19622572000000E+01 0.23472187088125E+00
 0.44453796000000E+00 0.81377028525955E+00
 s    1 1.00
 0.12194962000000E+00 0.10000000000000E+01
 
   26 0
 s    3 1.00
 0.13010701000000E+02 0.33485484812989E-01
 0.19622572000000E+01 0.23472187088125E+00
 0.44453796000000E+00 0.81377028525955E+00
 s    1 1.00
 0.12194962000000E+00 0.10000000000000E+01
 
   27 0
 s    3 1.00
 0.13010701000000E+02 0.33485484812989E-01
 0.19622572000000E+01 0.23472187088125E+00
 0.44453796000000E+00 0.81377028525955E+00
 s    1 1.00
 0.12194962000000E+00 0.10000000000000E+01
 
   28 0
 s    3 1.00
 0.13010701000000E+02 0.33485484812989E-01
 0.19622572000000E+01 0.23472187088125E+00
 0.44453796000000E+00 0.81377028525955E+00
 s    1 1.00
 0.12194962000000E+00 0.10000000000000E+01
 
   29 0
 s    3 1.00
 0.13010701000000E+02 0.33485484812989E-01
 0.19622572000000E+01 0.23472187088125E+00
 0.44453796000000E+00 0.81377028525955E+00
 s    1 1.00
 0.12194962000000E+00 0.10000000000000E+01
 
   30 0
 s    3 1.00
 0.13010701000000E+02 0.33485484812989E-01
 0.19622572000000E+01 0.23472187088125E+00
 0.44453796000000E+00 0.81377028525955E+00
 s    1 1.00
 0.12194962000000E+00 0.10000000000000E+01
 
[MO]
 Sym=     1e   (2)
 Ene= -.14124741265209E+02
 Spin= Alpha
 Occup= 2.000000
     1 0.33837334741696E-05
     2 -.18782862706194E-04
     3 -.92918759450011E-03
     4 0.16981320760683E-04
     5 -.11819157502036E-03
     6 -.11361799188358E-07
     7 -.39571090175502E-02
     8 0.52262210725101E-02
     9 0.55742286898677E-06
    10 -.25470160579571E-04
    11 0.30203798054206E-04
    12 -.47336374746348E-05
    13 -.20158856008688E-04
    14 -.37928629494603E-08
    15 -.80058445059760E-08
    16 0.97685705625010E-05
    17 -.92304437509414E-04
    18 0.13447872002346E-01
    19 0.16535974474942E-04
    20 -.14486400224520E-03
    21 0.74457454698359E-07
    22 -.40988175900484E-02
    23 0.86222932279474E-02
    24 -.14296492682909E-05
    25 0.45451386390799E-04
    26 -.50275659273239E-04
    27 0.48242728824400E-05
    28 0.66931327936745E-04
    29 0.33278241879608E-07
    30 -.37583443368032E-07
    31 -.60990342152370E-04
    32 0.12727070366069E-02
    33 -.77087110283594E-03
    34 0.18881980714891E-03
    35 0.33610751951647E-03
    36 0.45843657235841E-07
    37 -.35641811021430E-02
    38 -.54630476689022E-02
    39 0.29602789836367E-06
    40 0.24413850495474E-04
    41 -.78304172070134E-04
    42 0.53890321574661E-04
    43 0.21613810631429E-04
    44 0.46917406728609E-07
    45 0.26871192368728E-07
    46 -.10351881729424E-04
    47 0.55153816548335E-04
    48 0.24299518313989E-01
    49 0.68372426821331E-04
    50 -.10128655955430E-03
    51 -.47918398738300E-07
    52 -.14996113764053E-02
    53 0.10037402598300E-01
    54 -.78889804772016E-06
    55 -.38787009895666E-04
    56 0.59780487144672E-04
    57 -.20993477249006E-04
    58 0.61983462782107E-04
    59 0.50622459231483E-07
    60 -.64636474294310E-07
    61 0.51221771589869E-04
    62 -.11804025990975E-02
    63 -.12677000899510E-01
    64 0.51921144715439E-03
    65 -.53580417121373E-04
    66 -.12030111193420E-06
    67 -.16029762383731E-01
    68 0.11166139992064E-02
    69 0.11336213699272E-05
    70 0.11295670226495E-03
    71 -.54242107807849E-04
    72 -.58714594457101E-04
    73 0.47768057734872E-04
    74 0.95917176243815E-07
    75 -.17167988745291E-07
    76 0.69681482552548E-05
    77 -.36370953842142E-04
    78 -.23370330719489E-01
    79 0.57317046635982E-04
    80 -.15424507066443E-03
    81 0.59280197926657E-07
    82 0.14382452265747E-02
    83 0.55035564484332E-02
    84 0.23147517873340E-06
    85 -.11303066037345E-03
    86 0.87303545649805E-04
    87 0.25727114723640E-04
    88 -.53446581657165E-06
    89 -.25628765887997E-07
    90 -.83446210763954E-07
    91 -.27821295880892E-05
    92 -.15429693091650E-03
    93 0.29798402492903E-02
    94 0.32272170932902E-04
    95 0.12578458373445E-04
    96 -.22968978907857E-07
    97 0.15219766804623E-02
    98 0.19301384838806E-02
    99 -.44691225421645E-06
   100 -.21784575699711E-04
   101 0.39659478102022E-04
   102 -.17874902402310E-04
   103 0.26768392964343E-04
   104 0.33149739002402E-08
   105 0.12247159835403E-07
   106 -.40969420807039E-04
   107 0.35056020389165E-03
   108 -.13489693095205E-02
   109 -.70991919517097E-04
   110 0.32571060189680E-05
   111 -.97124699591934E-08
   112 0.99229283381210E-03
   113 -.67078208551284E-03
   114 0.79307176215376E-07
   115 0.77237252461074E-04
   116 -.60886144987743E-04
   117 -.16351107473331E-04
   118 0.50431482547979E-04
   119 0.12285262360853E-07
   120 -.41019049677648E-08
   121 0.97963557434362E-01
   122 -.45146807034837E-02
   123 0.55217016305298E-02
   124 0.30134829081264E-04
   125 0.33081625227445E-03
   126 0.77895377000558E-07
   127 -.26175806231709E-03
   128 0.14236406222934E-02
   129 0.36222589649171E-07
   130 -.22036639731673E-04
   131 0.29370354245936E-04
   132 -.73337145142622E-05
   133 0.11737680791515E-04
   134 -.93351875066305E-08
   135 0.74473851872462E-08
   136 -.28954511281617E-04
   137 -.37278928456969E-04
   138 0.58929349874140E-03
   139 0.10574999576771E-03
   140 -.88338292970167E-04
   141 -.38651781127725E-07
   142 0.17881770664122E-03
   143 0.26128152184086E-02
   144 0.96745011994539E-06
   145 0.10869230035259E-04
   146 0.31915170413194E-04
   147 -.42784400448453E-04
   148 -.24122438573728E-04
   149 -.33229875016256E-09
   150 0.96453366187339E-08
   151 0.26337862464604E-04
   152 -.31734469608197E-03
   153 -.34160555638845E-02
   154 -.50261002527918E-04
   155 -.13000762949839E-03
   156 -.39783224107279E-07
   157 0.10556971545109E-02
   158 -.18747212868801E-02
   159 -.82805939984536E-06
   160 0.12551333969132E-05
   161 -.67107985664598E-07
   162 -.11880254112486E-05
   163 0.28761817639012E-04
   164 0.37797408881146E-07
   165 -.17065101994163E-07
   166 -.21383011355415E-04
   167 0.84556360244568E-03
   168 -.12147662631476E-01
   169 0.91953448784661E-04
   170 0.12569057156238E-03
   171 0.52152732520920E-07
   172 -.34618203283831E-02
   173 -.96983185318654E-02
   174 -.12922236532684E-05
   175 0.63524047701782E-04
   176 -.14662097776888E-03
   177 0.83096930067097E-04
   178 -.10672964657883E-03
   179 -.70027891451209E-07
   180 -.31530563865475E-07
   181 0.16508784931139E-03
   182 0.44355044261036E-03
   183 0.16273998653388E-01
   184 0.40985674982036E-04
   185 -.70320856608422E-03
   186 0.74977546354578E-07
   187 0.65849953872311E-02
   188 0.36571970830279E-02
   189 -.67749412817467E-06
   190 0.35266189077214E-03
   191 -.64788274419994E-03
   192 0.29522085342779E-03
   193 -.23770658346068E-03
   194 -.57574433126495E-07
   195 0.65902628785526E-07
   196 -.74312797254456E+00
   197 0.33957071767329E-01
   198 -.43636679019511E-01
   199 -.18779276264964E-02
   200 0.16581848702157E-02
   201 -.77428936115491E-06
   202 -.88399645735775E-02
   203 0.53555561937071E-02
   204 -.15219493118715E-05
   205 0.60052586894340E-04
   206 0.19443841145765E-04
   207 -.79496428040105E-04
   208 0.22669053712631E-03
   209 -.12586418174817E-06
   210 -.83310449491611E-07
   211 0.15881946443338E-03
   212 0.98140047290993E-03
   213 0.14829869963993E-01
   214 0.10470045638411E-02
   215 0.16314674892927E-03
   216 0.79952193702008E-07
   217 -.16058284622266E-01
   218 -.72034118411499E-02
   219 0.16250379533895E-06
   220 -.67174758831116E-03
   221 0.35442716367619E-03
   222 0.31732042463497E-03
   223 -.73776797594281E-04
   224 -.63209857979476E-07
   225 -.15658552763016E-07
   226 -.63825292302886E-04
   227 0.70382879184480E-03
   228 0.11340546932244E-01
   229 -.14538690283398E-03
   230 -.41986715711858E-03
   231 0.22424625781327E-06
   232 0.24349559431874E-02
   233 -.23362501814480E-02
   234 0.13809746666602E-05
   235 -.39729874915814E-04
   236 0.61330967282156E-04
   237 -.21601092366342E-04
   238 0.25113229751246E-04
   239 0.58292347835293E-08
   240 -.54768076264123E-07
   241 0.24165140943505E-04
   242 -.69126667152918E-03
   243 0.91678223821861E-02
   244 -.35845153638577E-04
   245 0.12082001771785E-03
   246 -.29183753613062E-07
   247 0.91006173584910E-02
   248 -.82001848409574E-02
   249 0.17391359074849E-05
   250 -.30337272907753E-04
   251 0.95559300572540E-04
   252 -.65222027664787E-04
   253 -.17577516644344E-03
   254 0.45561620693316E-08
   255 -.73158486595733E-07
   256 0.37487429838282E-04
   257 -.38648409576283E-03
   258 -.79244913683593E-02
   259 0.15320176176710E-03
   260 -.35731883953140E-03
   261 -.18446303370599E-06
   262 0.21450222961255E-02
   263 -.91101258477724E-03
   264 -.55291526681484E-06
   265 -.39065650008467E-04
   266 0.16276532230876E-04
   267 0.22789117777591E-04
   268 0.78129065485403E-04
   269 0.54465055348354E-07
   270 -.63601840010283E-07
   271 -.12986495315177E-03
   272 -.94412154445296E-03
   273 -.15419163462734E-01
   274 0.35858484484770E-03
   275 0.85255459535925E-03
   276 -.41300412574283E-07
   277 0.56136854508149E-03
   278 -.16357041412052E-01
   279 -.11299539152843E-05
   280 -.16177793026348E-03
   281 0.43631395445000E-03
   282 -.27453602418652E-03
   283 0.45361478772070E-03
   284 -.98572673456727E-08
   285 -.57460171692687E-07
   286 0.64516441511020E+00
   287 -.29442391063845E-01
   288 0.38114977388982E-01
   289 -.20734313420309E-02
   290 -.65792999729250E-03
   291 0.69639398415435E-06
   292 -.79560000883272E-02
   293 -.40393463496603E-02
   294 0.14857267222223E-05
   295 0.11510000891666E-03
   296 -.20193015147102E-03
   297 0.86830142554367E-04
   298 0.73206239095822E-04
   299 0.10998905796957E-07
   300 -.13884860144281E-06
   301 -.12411842850435E-03
   302 -.79411064650201E-03
   303 -.14925029343867E-01
   304 0.59681409667548E-03
   305 -.25300028854171E-03
   306 -.65265076395385E-07
   307 0.40504203515479E-04
   308 0.63366299858285E-02
   309 0.59818695195929E-06
   310 0.20799833157596E-03
   311 0.70871414378502E-04
   312 -.27886974595446E-03
   313 -.52484816921799E-03
   314 -.83270289993256E-07
   315 -.29599909083807E-07
   316 -.19036170119296E-04
   317 -.12930362804508E-03
   318 0.95303241889339E-04
   319 0.63944006300366E-03
   320 0.95442534907661E-04
   321 0.64000625405463E-03
   322 -.44138137306177E-04
   323 -.29548884262115E-03
   324 0.63174307425474E-04
   325 0.42479247066623E-03
   326 0.70996308892052E-04
   327 0.38445018432735E-03
   328 0.71224229272886E-04
   329 0.38479522300593E-03
   330 -.16643884379971E-03
   331 -.10244564383820E-02
   332 -.16652747116223E-03
   333 -.10242352860096E-02
 Sym=     1e   (1)
 Ene= -.14124741265209E+02
 Spin= Alpha
 Occup= 2.000000
     1 -.99997239740269E-05
     2 0.52841850822461E-04
     3 0.27522200171707E-01
     4 -.13095722847237E-03
     5 -.78132542051314E-04
     6 -.61891138641263E-07
     7 0.86185656736521E-02
     8 -.12781255726296E-02
     9 -.58911275696685E-06
    10 -.27809882235017E-04
    11 0.54784028587123E-04
    12 -.26974146352106E-04
    13 -.10433286081531E-03
    14 -.96053175203517E-07
    15 -.17926749878810E-07
    16 -.64785694075419E-04
    17 0.14163035085256E-02
    18 0.68740072431165E-02
    19 0.23663940234513E-03
    20 -.46650884471056E-03
    21 0.95923727204772E-07
    22 -.57717201891130E-02
    23 0.11696356460567E-01
    24 -.48358481627869E-06
    25 -.53242469568920E-04
    26 -.11770009014093E-04
    27 0.65012478583013E-04
    28 0.85468358794110E-04
    29 0.18996616871635E-07
    30 -.84130308021747E-07
    31 0.23933016771923E-04
    32 -.62821376649764E-03
    33 -.15083202402432E-01
    34 -.24433211941654E-03
    35 -.29422501203659E-03
    36 -.11244391087229E-06
    37 0.83136207077366E-02
    38 0.12230992948472E-01
    39 0.14799049929811E-05
    40 -.41640260419015E-04
    41 0.78324442581502E-04
    42 -.36684182162488E-04
    43 0.81432116398090E-04
    44 -.45458018865125E-07
    45 -.70491143172745E-07
    46 0.20694628387468E-05
    47 -.10154489151871E-04
    48 -.12956400024135E-01
    49 -.14786224393843E-03
    50 -.26741435990667E-04
    51 0.40785176050447E-07
    52 0.38073841478622E-02
    53 0.11793720685152E-02
    54 -.18818598670952E-06
    55 0.21047117646822E-04
    56 -.38633641128215E-04
    57 0.17586523481393E-04
    58 -.79568264869789E-04
    59 -.39422545415184E-07
    60 0.36488572302133E-07
    61 0.40852677303496E-04
    62 -.78808974202801E-03
    63 0.82091951593150E-02
    64 0.14535581722130E-03
    65 0.36166627968895E-04
    66 0.16520183667522E-07
    67 0.17339590396280E-02
    68 -.23458833311622E-03
    69 -.99632017670240E-06
    70 -.23167960881559E-04
    71 0.51496257302084E-04
    72 -.28328296420525E-04
    73 0.44204116373255E-04
    74 -.14188377511061E-08
    75 -.21491373657539E-07
    76 0.79302611352801E-05
    77 -.42687361670589E-04
    78 -.14565800147572E-01
    79 -.94903732828297E-04
    80 -.37796816176015E-04
    81 0.21105962590817E-07
    82 0.83412302977290E-02
    83 0.41172286714952E-02
    84 0.77729874367637E-06
    85 -.28995546406275E-04
    86 0.19607923535562E-04
    87 0.93876228707132E-05
    88 -.20813228043962E-04
    89 -.20612808945539E-07
    90 -.39762652817348E-07
    91 0.26297237990872E-04
    92 -.88728937237815E-03
    93 0.12306501010545E-01
    94 0.16014757339567E-03
    95 -.26648139786422E-04
    96 -.46959642164393E-07
    97 -.12575715076509E-01
    98 -.32518724599178E-02
    99 0.17501562584114E-05
   100 0.21364759437385E-03
   101 -.12801560420143E-03
   102 -.85631990172428E-04
   103 0.44252157957810E-04
   104 -.73875086919273E-07
   105 0.44752810887999E-07
   106 -.16697332234825E-03
   107 -.71456396296456E-03
   108 -.18012767212670E-01
   109 -.63855827175694E-03
   110 -.44886382094404E-03
   111 -.80969115996551E-07
   112 0.68861454077419E-02
   113 -.40862354492270E-02
   114 0.73651481501545E-06
   115 0.62054518778950E-03
   116 -.28909382569692E-03
   117 -.33145136209258E-03
   118 0.41130812436349E-03
   119 0.25569114790401E-07
   120 0.97991569533452E-07
   121 0.80153098372639E+00
   122 -.36603696932056E-01
   123 0.47199340834141E-01
   124 0.55656449785731E-03
   125 0.26442842553786E-02
   126 0.84909942530700E-06