
 statpt (c-17-23.gp.local) : TURBOMOLE V7.2 ( 21454 ) 2 Oct 2017 at 16:43:05
 Copyright (C) 2017 TURBOMOLE GmbH, Karlsruhe


    2018-03-20 23:02:59.104 



                           this is S T A T P T   


                     hessian and coordinate update for
                          stationary point search 

                     by barbara unterreiner, marek sierka,
                           and reinhart ahlrichs

                          quantum chemistry group
                          universitaet  karlsruhe
                                  germany




              +--------------------------------------------------+
              | Atomic coordinate, charge and isotop information |
              +--------------------------------------------------+

                    atomic coordinates            atom    charge  isotop
         -0.89289958   -2.34420053    0.00000000    c      6.000     0
         -2.48491429   -0.43126475    0.00000000    c      6.000     0
          1.61594338   -1.93636653    0.00000000    c      6.000     0
          2.47658700    0.39882655    0.00000000    c      6.000     0
          0.86897091    2.36763128    0.00000000    c      6.000     0
         -1.58368742    1.94537398    0.00000000    c      6.000     0
          3.37140701   -3.68999042    0.00000000    c      6.000     0
          2.35662693   -6.23972826    0.00000000    c      6.000     0
         -0.31047837   -6.62413720    0.00000000    n      7.000     0
         -1.94756012   -4.56098337    0.00000000    c      6.000     0
         -4.89239566   -4.07523432    0.00000000    c      6.000     0
         -4.88132895   -1.07472890    0.00000000    c      6.000     0
         -6.58207666    1.07896534    0.00000000    c      6.000     0
         -5.58143191    3.58095075    0.00000000    n      7.000     0
         -2.97614740    3.96712823    0.00000000    c      6.000     0
         -1.08305862    6.27455609    0.00000000    c      6.000     0
          1.50992194    4.76471932    0.00000000    c      6.000     0
          5.97545428   -2.19932177    0.00000000    c      6.000     0
          4.92370753    0.59385514    0.00000000    c      6.000     0
          5.89191028    3.04318644    0.00000000    n      7.000     0
          4.22544972    5.16076292    0.00000000    c      6.000     0
          4.98270166    7.05844889    0.00000000    h      1.000     0
          7.09113144   -2.59925943    1.74189179    h      1.000     0
          7.09113144   -2.59925943   -1.74189179    h      1.000     0
          3.62144522   -7.84437066    0.00000000    h      1.000     0
         -8.60414688    0.78592177    0.00000000    h      1.000     0
         -5.79659042   -4.84147025   -1.74189179    h      1.000     0
         -5.79659042   -4.84147025    1.74189179    h      1.000     0
         -1.29454102    7.44072968   -1.74189179    h      1.000     0
         -1.29454102    7.44072968    1.74189179    h      1.000     0
 
       center of nuclear mass  :   -0.00000000    0.00000000    0.00000000
       center of nuclear charge:   -0.00000000    0.00000000    0.00000000
 
        ***************  Stationary point options ******************
        ************************************************************
           Maximum allowed trust radius:           3.000000E-01
           Minimum allowed trust radius:           1.000000E-03
           Initial trust radius:                   1.500000E-01
           GDIIS used if gradient norm <           1.000000E-02
           Number of previous steps for GDIIS:       5
           Hessian update method:                  Powell
           Initial index of transition vector:       1
                        *** Convergence criteria ***                
           Threshold for energy change:            1.000000E-06
           Threshold for max displacement element: 1.000000E-03
           Threshold for max gradient element :    1.000000E-03
           Threshold for RMS of displacement:      5.000000E-04
           Threshold for RMS of gradient:          5.000000E-04
        ************************************************************
 
     Number of symmetry restricted degrees of freedom:    30
     Constituted by:     1 translational degrees of freedom
                         1 rotational degrees of freedom
                      28 internal degrees of freedom


 keyword $optinfo  missing in file <control>

  *************************************************************************
   ATOM                      CARTESIAN COORDINATES
    1 c      -0.89289957797848     -2.34420053300440      0.00000000000000
    2 c      -2.48491429292595     -0.43126475494183      0.00000000000000
    3 c       1.61594337999947     -1.93636652643000      0.00000000000000
    4 c       2.47658700213607      0.39882654894443      0.00000000000000
    5 c       0.86897091292648      2.36763128137183      0.00000000000000
    6 c      -1.58368742415759      1.94537398405997      0.00000000000000
    7 c       3.37140700522104     -3.68999042341606      0.00000000000000
    8 c       2.35662693348884     -6.23972826317774      0.00000000000000
    9 n      -0.31047836986444     -6.62413719861854      0.00000000000000
   10 c      -1.94756012444821     -4.56098337073221      0.00000000000000
   11 c      -4.89239566112710     -4.07523431973108      0.00000000000000
   12 c      -4.88132894901013     -1.07472890131020      0.00000000000000
   13 c      -6.58207665536810      1.07896533994492      0.00000000000000
   14 n      -5.58143190722492      3.58095075493746      0.00000000000000
   15 c      -2.97614740306837      3.96712822853584      0.00000000000000
   16 c      -1.08305861669776      6.27455608776637      0.00000000000000
   17 c       1.50992194378909      4.76471932472627      0.00000000000000
   18 c       5.97545427782486     -2.19932176803529      0.00000000000000
   19 c       4.92370752751658      0.59385514219637      0.00000000000000
   20 n       5.89191027708936      3.04318644368108      0.00000000000000
   21 c       4.22544972187926      5.16076292323283      0.00000000000000
   22 h       4.98270165781090      7.05844889418939      0.00000000000000
   23 h       7.09113143759308     -2.59925943385768      1.74189179133292
   24 h       7.09113143759308     -2.59925943385768     -1.74189179133292
   25 h       3.62144522477674     -7.84437066223777      0.00000000000000
   26 h      -8.60414688258764      0.78592176804838      0.00000000000000
   27 h      -5.79659041954365     -4.84147024960123     -1.74189179133292
   28 h      -5.79659041954365     -4.84147024960123      1.74189179133292
   29 h      -1.29454101804943      7.44072968345891     -1.74189179133292
   30 h      -1.29454101804943      7.44072968345891      1.74189179133292
  *************************************************************************
   ATOM                      CARTESIAN GRADIENTS  
    1 c      -0.05727798501951      0.00437384270702      0.00000319252034
    2 c       0.00750077387907     -0.05659667183141     -0.00000617270385
    3 c       0.04526376863612      0.03479419664303     -0.00000617270385
    4 c       0.02485113361332     -0.05179111145798      0.00000319252034
    5 c      -0.05276454251520      0.02180247518838     -0.00000617270385
    6 c       0.03242685140619      0.04741726875097      0.00000319252034
    7 c      -0.05962330510621      0.07814821262601      0.00001758365379
    8 c       0.04250655845379     -0.04249646644269     -0.00000675517985
    9 n      -0.01481627839801      0.00176527339085      0.00000118537131
   10 c       0.00581542646918      0.11007072469445      0.00000412418579
   11 c      -0.00336572417484     -0.00292269193993      0.00001918063862
   12 c       0.09748998994757      0.01256119056656      0.00001758365379
   13 c      -0.05805629873733     -0.01556352622709     -0.00000675517985
   14 n       0.00893691080011      0.01194863678680      0.00000118537131
   15 c       0.09241633056376     -0.06007166940338      0.00000412418579
   16 c      -0.00084826338000      0.00437614860751      0.00001918063862
   17 c      -0.03786668484137     -0.09070940319257      0.00001758365379
   18 c       0.00421398755484     -0.00145345666758      0.00001918063862
   19 c      -0.09823175703295     -0.04999905529107      0.00000412418579
   20 n       0.00587936759791     -0.01371391017765      0.00000118537131
   21 c       0.01554974028354      0.05805999266977     -0.00000675517985
   22 h      -0.01445630247477     -0.00558985142735     -0.00001217280532
   23 h      -0.00116575782276      0.00022280265645      0.00772064935880
   24 h      -0.00114743201249      0.00020988681504     -0.00774281227173
   25 h       0.00238719789792      0.01531445090161     -0.00001217280532
   26 h       0.01206910457685     -0.00972459947427     -0.00001217280532
   27 h       0.00075548331999      0.00088876186441     -0.00774281227173
   28 h       0.00077583167190      0.00089817456094      0.00772064935880
   29 h       0.00039194869250     -0.00109864867945     -0.00774281227173
   30 h       0.00038992615086     -0.00112097721740      0.00772064935880
  *************************************************************************

  norm of actual CARTESIAN gradient:  3.12675E-01
  norm of actual INTERNAL  gradient:  3.38016E-01

  ENERGY =    -854.9576818059 a.u.; # of cycle =    1


 keyword $hessapprox missing in file <control>


  Found initial Hessian matrix in $hessian section
  Number of zero Hessian eigenvalues:   0

   5 first eigenvalues: 
 -0.13095759  0.02420324  0.03643351  0.05962010  0.06684643

  Eigenvalue of transition vector: -0.13095759

  Results of the TRO shift search
  Final shift: -1.37789E+00 residual -3.46945E-18
  Final step radius: 1.50000E-01

  Transforming internal coordinate displacements to Cartesian space
      Iteration   1 residual norm     1.500000E-01
      Iteration   2 residual norm     2.218922E-03
      Iteration   3 residual norm     1.815294E-07
      Iteration   4 residual norm     1.294849E-11
      Transformation converged
      Residual norm:    1.294849E-11 after    4 iterations

      ****************************************************************** 
                          CONVERGENCE INFORMATION

                               Converged?     Value      Criterion
             Energy change         no     854.9576818   0.0000010
             RMS of displacement   no       0.0283473   0.0005000
             RMS of gradient       no       0.0638789   0.0005000
             MAX displacement      no       0.0841096   0.0010000
             MAX gradient          no       0.1991564   0.0010000
      ****************************************************************** 


    ------------------------------------------------------------------------
         total  cpu-time :   0.08 seconds
         total wall-time :   0.12 seconds
    ------------------------------------------------------------------------

   ****  statpt : all done  ****


    2018-03-20 23:02:59.210 


 statpt (c-17-23.gp.local) : TURBOMOLE V7.2 ( 21454 ) 2 Oct 2017 at 16:43:05
 Copyright (C) 2017 TURBOMOLE GmbH, Karlsruhe


    2018-03-20 23:03:10.775 



                           this is S T A T P T   


                     hessian and coordinate update for
                          stationary point search 

                     by barbara unterreiner, marek sierka,
                           and reinhart ahlrichs

                          quantum chemistry group
                          universitaet  karlsruhe
                                  germany




              +--------------------------------------------------+
              | Atomic coordinate, charge and isotop information |
              +--------------------------------------------------+

                    atomic coordinates            atom    charge  isotop
         -0.89155398   -2.38235024    0.00018042    c      6.000     0
         -2.51870024   -0.43548161    0.00018433    c      6.000     0
          1.63648826   -1.96351759    0.00018433    c      6.000     0
          2.50895282    0.41906672    0.00018042    c      6.000     0
          0.88221199    2.39899920    0.00018433    c      6.000     0
         -1.61739884    1.96328352    0.00018042    c      6.000     0
          3.42532382   -3.73601851    0.00002016    c      6.000     0
          2.34571589   -6.25371655   -0.00005841    c      6.000     0
         -0.29708091   -6.65978031   -0.00008065    n      7.000     0
         -1.96618606   -4.64013864   -0.00002972    c      6.000     0
         -4.90674022   -4.10213060   -0.00004416    c      6.000     0
         -4.94814884   -1.09840819    0.00002016    c      6.000     0
         -6.58873535    1.09540872   -0.00005841    c      6.000     0
         -5.61899848    3.58716977   -0.00008065    n      7.000     0
         -3.03538491    4.02283640   -0.00002972    c      6.000     0
         -1.09917920    6.30042698   -0.00004416    c      6.000     0
          1.52282503    4.83442669    0.00002016    c      6.000     0
          6.00591942   -2.19829638   -0.00004416    c      6.000     0
          5.00157097    0.61730224   -0.00002972    c      6.000     0
          5.91607939    3.07261054   -0.00008065    n      7.000     0
          4.24301946    5.15830783   -0.00005841    c      6.000     0
          5.03306905    7.04937576   -0.00010315    h      1.000     0
          7.13064867   -2.60071834    1.73152656    h      1.000     0
          7.13057760   -2.60096905   -1.73159536    h      1.000     0
          3.58840396   -7.88345354   -0.00010315    h      1.000     0
         -8.62147302    0.83407778   -0.00010315    h      1.000     0
         -5.81779408   -4.87477682   -1.73159536    h      1.000     0
         -5.81761248   -4.87496372    1.73152656    h      1.000     0
         -1.31278352    7.47574587   -1.73159536    h      1.000     0
         -1.31303619    7.47568206    1.73152656    h      1.000     0
 
       center of nuclear mass  :   -0.00000000    0.00000000    0.00001943
       center of nuclear charge:   -0.00000000    0.00000000    0.00001694
 
        ***************  Stationary point options ******************
        ************************************************************
           Maximum allowed trust radius:           3.000000E-01
           Minimum allowed trust radius:           1.000000E-03
           Initial trust radius:                   1.500000E-01
           GDIIS used if gradient norm <           1.000000E-02
           Number of previous steps for GDIIS:       5
           Hessian update method:                  Powell
           Initial index of transition vector:       1
                        *** Convergence criteria ***                
           Threshold for energy change:            1.000000E-06
           Threshold for max displacement element: 1.000000E-03
           Threshold for max gradient element :    1.000000E-03
           Threshold for RMS of displacement:      5.000000E-04
           Threshold for RMS of gradient:          5.000000E-04
        ************************************************************
 
     Number of symmetry restricted degrees of freedom:    30
     Constituted by:     1 translational degrees of freedom
                         1 rotational degrees of freedom
                      28 internal degrees of freedom

  *************************************************************************
   ATOM                      CARTESIAN COORDINATES
    1 c      -0.89155398302296     -2.38235024142181      0.00018041671841
    2 c      -2.51870024324593     -0.43548160692489      0.00018432578498
    3 c       1.63648825610079     -1.96351759170657      0.00018432578498
    4 c       2.50895282129476      0.41906672256782      0.00018041671841
    5 c       0.88221198714514      2.39899919863146      0.00018432578498
    6 c      -1.61739883827180      1.96328351885399      0.00018041671841
    7 c       3.42532381523408     -3.73601850568338      0.00002016031615
    8 c       2.34571589097567     -6.25371655141974     -0.00005841080739
    9 n      -0.29708090938861     -6.65978031409836     -0.00008065497687
   10 c      -1.96618606315544     -4.64013863743519     -0.00002972449258
   11 c      -4.90674021895833     -4.10213059872781     -0.00004416148928
   12 c      -4.94814884254763     -1.09840818733885      0.00002016031615
   13 c      -6.58873534708455      1.09540872406410     -0.00005841080739
   14 n      -5.61899848093838      3.58716977155911     -0.00008065497687
   15 c      -3.03538490552287      4.02283639797712     -0.00002972449258
   16 c      -1.09917919866059      6.30042697875264     -0.00004416148928
   17 c       1.52282502731355      4.83442669302224      0.00002016031615
   18 c       6.00591941761892     -2.19829638002483     -0.00004416148928
   19 c       5.00157096867831      0.61730223945806     -0.00002972449258
   20 n       5.91607939032699      3.07261054253925     -0.00008065497687
   21 c       4.24301945610888      5.15830782735566     -0.00005841080739
   22 h       5.03306905409636      7.04937576213277     -0.00010314888574
   23 h       7.13064866948083     -2.60071833807434      1.73152655929242
   24 h       7.13057760051596     -2.60096905446002     -1.73159536146009
   25 h       3.58840396378108     -7.88345354091515     -0.00010314888574
   26 h      -8.62147301787745      0.83407777878238     -0.00010314888574
   27 h      -5.81779407587755     -4.87477681847309     -1.73159536146009
   28 h      -5.81761248360084     -4.87496372419493      1.73152655929242
   29 h      -1.31278352463841      7.47574587293311     -1.73159536146009
   30 h      -1.31303618587999      7.47568206226927      1.73152655929242
  *************************************************************************
   ATOM                      CARTESIAN GRADIENTS  
    1 c      -0.03755776147942      0.00082065394385     -0.00000151111742
    2 c       0.00105264078712     -0.03823130601255     -0.00000920119126
    3 c       0.03258296183317      0.02002726666898     -0.00000920119126
    4 c       0.01806817357662     -0.03293630252237     -0.00000151111742
    5 c      -0.03363560262030      0.01820403934357     -0.00000920119126
    6 c       0.01948958790279      0.03211564857853     -0.00000151111742
    7 c      -0.03518131886239      0.05090052458721      0.00001651796758
    8 c       0.02888761615060     -0.03167788188400     -0.00000891200215
    9 n      -0.00825464208700      0.00417404604115      0.00000358699772
   10 c      -0.00787909021983      0.06788503478089      0.00000698175957
   11 c       0.00187754344062      0.00139904639127      0.00001543926762
   12 c       0.06167180678967      0.00501765357987      0.00001651796758
   13 c      -0.04187765852492     -0.00917846849919     -0.00000891200215
   14 n       0.00774215095170      0.00506170672592      0.00000358699772
   15 c       0.06272970976696     -0.02711902510136      0.00000698175957
   16 c       0.00027283799560     -0.00232552351192      0.00001543926762
   17 c      -0.02649048792728     -0.05591817816708      0.00001651796758
   18 c      -0.00215038143622      0.00092647712065      0.00001543926762
   19 c      -0.05485061954713     -0.04076600967953      0.00000698175957
   20 n       0.00051249113530     -0.00923575276707      0.00000358699772
   21 c       0.01299004237433      0.04085635038319     -0.00000891200215
   22 h      -0.01294758604216     -0.00411496110493     -0.00001103615291
   23 h      -0.00154782899117      0.00047571669406      0.00647081407597
   24 h      -0.00153488001960      0.00045460761308     -0.00648684512434
   25 h       0.00291013216863      0.01327041898266     -0.00001103615291
   26 h       0.01003745387353     -0.00915545787773     -0.00001103615291
   27 h       0.00116114175148      0.00110194128219     -0.00648684512434
   28 h       0.00118589723765      0.00110260088003      0.00647081407597
   29 h       0.00037373826812     -0.00155654889527     -0.00648684512434
   30 h       0.00036193175352     -0.00157831757409      0.00647081407597
  *************************************************************************

  norm of actual CARTESIAN gradient:  2.01810E-01
  norm of actual INTERNAL  gradient:  2.10113E-01

  ENERGY =    -854.9987586906 a.u.; # of cycle =    2

  Approximate Hessian read from $hessapprox data section

  Hessian updated according to Powell formula
  Number of zero Hessian eigenvalues:   0

   5 first eigenvalues: 
 -0.13095795  0.02420911  0.03643391  0.05962029  0.06685766

  Eigenvalue of transition vector: -0.13095795

  Largest and next-largest overlaps:   0.99999996  0.00014886

  Old transition vector    1 has overlap 0.99999996 with the new    1

        ***************  Trust radius update info  *****************
                Actual energy change:       -4.10769E-02
                Predicted energy change:    -4.06985E-02
                Actual step radius:          1.50000E-01
                Actual trust radius:         0.150000
                Energy change ratio:         1.009298
                New trust radius:            0.300000
        ************************************************************


  Results of the TRO shift search
  Final shift: -1.08664E-01 residual -4.16334E-17
  Final step radius: 3.00000E-01

  Transforming internal coordinate displacements to Cartesian space
      Iteration   1 residual norm     3.000000E-01
      Iteration   2 residual norm     7.810543E-03
      Iteration   3 residual norm     1.555883E-06
      Iteration   4 residual norm     5.392442E-13
      Transformation converged
      Residual norm:    5.392442E-13 after    4 iterations

      ****************************************************************** 
                          CONVERGENCE INFORMATION

                               Converged?     Value      Criterion
             Energy change         no       0.0410769   0.0000010
             RMS of displacement   no       0.0566947   0.0005000
             RMS of gradient       no       0.0397076   0.0005000
             MAX displacement      no       0.1188925   0.0010000
             MAX gradient          no       0.1198974   0.0010000
      ****************************************************************** 


    ------------------------------------------------------------------------
         total  cpu-time :   0.06 seconds
         total wall-time :   0.08 seconds
    ------------------------------------------------------------------------

   ****  statpt : all done  ****


    2018-03-20 23:03:10.842 


 statpt (c-17-23.gp.local) : TURBOMOLE V7.2 ( 21454 ) 2 Oct 2017 at 16:43:05
 Copyright (C) 2017 TURBOMOLE GmbH, Karlsruhe


    2018-03-20 23:03:21.684 



                           this is S T A T P T   


                     hessian and coordinate update for
                          stationary point search 

                     by barbara unterreiner, marek sierka,
                           and reinhart ahlrichs

                          quantum chemistry group
                          universitaet  karlsruhe
                                  germany




              +--------------------------------------------------+
              | Atomic coordinate, charge and isotop information |
              +--------------------------------------------------+

                    atomic coordinates            atom    charge  isotop
         -0.87013092   -2.43294566    0.00054647    c      6.000     0
         -2.56036786   -0.44950232    0.00058777    c      6.000     0
          1.66946436   -1.99259245    0.00058777    c      6.000     0
          2.54205821    0.46291735    0.00054647    c      6.000     0
          0.89090351    2.44209477    0.00058777    c      6.000     0
         -1.67192729    1.97002831    0.00054647    c      6.000     0
          3.50273401   -3.80639178   -0.00016492    c      6.000     0
          2.31405170   -6.27125928   -0.00040831    c      6.000     0
         -0.27841564   -6.72369186   -0.00059526    n      7.000     0
         -1.94827447   -4.75917875   -0.00050318    c      6.000     0
         -4.92721507   -4.16652891   -0.00016680    c      6.000     0
         -5.04779898   -1.13026075   -0.00016492    c      6.000     0
         -6.58809570    1.13160209   -0.00040831    c      6.000     0
         -5.68368014    3.60296095   -0.00059526    n      7.000     0
         -3.14743246    4.06684456   -0.00050318    c      6.000     0
         -1.14471235    6.35035787   -0.00016680    c      6.000     0
          1.54506497    4.93665252   -0.00016492    c      6.000     0
          6.07192742   -2.18382896   -0.00016680    c      6.000     0
          5.09570693    0.69233419   -0.00050318    c      6.000     0
          5.96209578    3.12073092   -0.00059526    n      7.000     0
          4.27404401    5.13965720   -0.00040831    c      6.000     0
          5.17622201    7.00109654   -0.00038902    h      1.000     0
          7.22645596   -2.59034799    1.69856070    h      1.000     0
          7.22790014   -2.59231840   -1.69746744    h      1.000     0
          3.47501646   -7.98328803   -0.00038902    h      1.000     0
         -8.65123847    0.98219148   -0.00038902    h      1.000     0
         -5.85896366   -4.96338593   -1.69746744    h      1.000     0
         -5.85653515   -4.96312045    1.69856070    h      1.000     0
         -1.36893648    7.55570434   -1.69746744    h      1.000     0
         -1.36992082    7.55346844    1.69856070    h      1.000     0
 
       center of nuclear mass  :   -0.00000000    0.00000000   -0.00010030
       center of nuclear charge:   -0.00000000    0.00000000   -0.00008949
 
        ***************  Stationary point options ******************
        ************************************************************
           Maximum allowed trust radius:           3.000000E-01
           Minimum allowed trust radius:           1.000000E-03
           Initial trust radius:                   1.500000E-01
           GDIIS used if gradient norm <           1.000000E-02
           Number of previous steps for GDIIS:       5
           Hessian update method:                  Powell
           Initial index of transition vector:       1
                        *** Convergence criteria ***                
           Threshold for energy change:            1.000000E-06
           Threshold for max displacement element: 1.000000E-03
           Threshold for max gradient element :    1.000000E-03
           Threshold for RMS of displacement:      5.000000E-04
           Threshold for RMS of gradient:          5.000000E-04
        ************************************************************
 
     Number of symmetry restricted degrees of freedom:    30
     Constituted by:     1 translational degrees of freedom
                         1 rotational degrees of freedom
                      28 internal degrees of freedom

  *************************************************************************
   ATOM                      CARTESIAN COORDINATES
    1 c      -0.87013091638094     -2.43294566281371      0.00054646587501
    2 c      -2.56036786367592     -0.44950231747847      0.00058776772486
    3 c       1.66946435783429     -1.99259245423740      0.00058776772486
    4 c       2.54205820821431      0.46291735320273      0.00054646587501
    5 c       0.89090350584163      2.44209477171587      0.00058776772486
    6 c      -1.67192729183338      1.97002830961098      0.00054646587501
    7 c       3.50273400924183     -3.80639177831982     -0.00016491700987
    8 c       2.31405169579206     -6.27125928335562     -0.00040830972546
    9 n      -0.27841563703804     -6.72369186378005     -0.00059526097345
   10 c      -1.94827446894044     -4.75917874714928     -0.00050318023253
   11 c      -4.92721506551737     -4.16652891405310     -0.00016680298738
   12 c      -5.04779898140211     -1.13026074554322     -0.00016491700987
   13 c      -6.58809570100100      1.13160208745144     -0.00040830972546
   14 n      -5.68368014273324      3.60296094637581     -0.00059526097345
   15 c      -3.14743246171206      4.06684455722170     -0.00050318023253
   16 c      -1.14471235241369      6.35035787367400     -0.00016680298738
   17 c       1.54506497216028      4.93665252386305     -0.00016491700987
   18 c       6.07192741793106     -2.18382895962090     -0.00016680298738
   19 c       5.09570693065250      0.69233418992757     -0.00050318023253
   20 n       5.96209577977128      3.12073091740424     -0.00059526097345
   21 c       4.27404400520894      5.13965719590420     -0.00040830972546
   22 h       5.17622200673616      7.00109654489565     -0.00038902063163
   23 h       7.22645596464513     -2.59034798902299      1.69856069520364
   24 h       7.22790013842466     -2.59231840295859     -1.69746743724319
   25 h       3.47501645885900     -7.98328802590941     -0.00038902063163
   26 h      -8.65123846559518      0.98219148101376     -0.00038902063163
   27 h      -5.85896366087237     -4.96338593441351     -1.69746743724319
   28 h      -5.85653514545841     -4.96312045020077      1.69856069520364
   29 h      -1.36893647755228      7.55570433737210     -1.69746743724319
   30 h      -1.36992081918672      7.55346843922376      1.69856069520364
  *************************************************************************
   ATOM                      CARTESIAN GRADIENTS  
    1 c      -0.00805118085462     -0.00121392898928      0.00000153469551
    2 c      -0.00070128545631     -0.01104025398373     -0.00000288995861
    3 c       0.00991178314230      0.00491279597139     -0.00000288995861
    4 c       0.00507688377042     -0.00636556265592      0.00000153469551
    5 c      -0.00921049768599      0.00612745801233     -0.00000288995861
    6 c       0.00297429708421      0.00757949164520      0.00000153469551
    7 c      -0.00552267977157      0.01256220915505      0.00000116156830
    8 c       0.00021462793449     -0.00798433096183     -0.00000899670017
    9 n       0.00158237595569      0.00506707494183      0.00001689198273
   10 c      -0.00542156627150      0.01282189723956     -0.00000305417424
   11 c       0.00285437055606      0.00218391015313      0.00000754743972
   12 c       0.01364053214171     -0.00149832359838      0.00000116156830
   13 c      -0.00702194741242      0.00380629223729     -0.00000899670017
   14 n       0.00359702764466     -0.00390391524688      0.00001689198273
   15 c       0.01381487186992     -0.00171573450036     -0.00000305417424
   16 c       0.00046413639416     -0.00356391248993      0.00000754743972
   17 c      -0.00811785237014     -0.01106388555667      0.00000116156830
   18 c      -0.00331850695023      0.00138000233680      0.00000754743972
   19 c      -0.00839330559842     -0.01110616273919     -0.00000305417424
   20 n      -0.00517940360035     -0.00116315969495      0.00001689198273
   21 c       0.00680731947793      0.00417803872455     -0.00000899670017
   22 h      -0.00448568659411     -0.00096698744062     -0.00000563568305
   23 h      -0.00099687652303      0.00027180653168      0.00195826652541
   24 h      -0.00097034044112      0.00020674980696     -0.00197185280491
   25 h       0.00140540760834      0.00436821226422     -0.00000563568305
   26 h       0.00308027898577     -0.00340122482361     -0.00000563568305
   27 h       0.00066422080562      0.00073696456885     -0.00197185280491
   28 h       0.00073382962286      0.00072741712754      0.00195826652541
   29 h       0.00030611963551     -0.00094371437581     -0.00197185280491
   30 h       0.00026304690016     -0.00099922365922      0.00195826652541
  *************************************************************************

  norm of actual CARTESIAN gradient:  4.60381E-02
  norm of actual INTERNAL  gradient:  4.64594E-02

  ENERGY =    -855.0321785161 a.u.; # of cycle =    3

  Approximate Hessian read from $hessapprox data section

  Hessian updated according to Powell formula
  Number of zero Hessian eigenvalues:   0

   5 first eigenvalues: 
 -0.13095836  0.02421705  0.03643476  0.05962036  0.06686825

  Eigenvalue of transition vector: -0.13095836

  Largest and next-largest overlaps:   0.99999995  0.00015187

  Old transition vector    1 has overlap 0.99999995 with the new    1

        ***************  Trust radius update info  *****************
                Actual energy change:       -3.34198E-02
                Predicted energy change:    -3.21447E-02
                Actual step radius:          3.00000E-01
                Actual trust radius:         0.300000
                Energy change ratio:         1.039668
                New trust radius:            0.300000
        ************************************************************

  Final step radius: 1.48590E-01

  Transforming internal coordinate displacements to Cartesian space
      Iteration   1 residual norm     1.485900E-01
      Iteration   2 residual norm     1.661797E-03
      Iteration   3 residual norm     1.630534E-07
      Iteration   4 residual norm     1.747582E-12
      Transformation converged
      Residual norm:    1.747582E-12 after    4 iterations

      ****************************************************************** 
                          CONVERGENCE INFORMATION

                               Converged?     Value      Criterion
             Energy change         no       0.0334198   0.0000010
             RMS of displacement   no       0.0280809   0.0005000
             RMS of gradient       no       0.0087800   0.0005000
             MAX displacement      no       0.0749360   0.0010000
             MAX gradient          no       0.0258850   0.0010000
      ****************************************************************** 


    ------------------------------------------------------------------------
         total  cpu-time :   0.06 seconds
         total wall-time :   0.08 seconds
    ------------------------------------------------------------------------

   ****  statpt : all done  ****


    2018-03-20 23:03:21.748 


 statpt (c-17-23.gp.local) : TURBOMOLE V7.2 ( 21454 ) 2 Oct 2017 at 16:43:05
 Copyright (C) 2017 TURBOMOLE GmbH, Karlsruhe


    2018-03-20 23:03:32.033 



                           this is S T A T P T   


                     hessian and coordinate update for
                          stationary point search 

                     by barbara unterreiner, marek sierka,
                           and reinhart ahlrichs

                          quantum chemistry group
                          universitaet  karlsruhe
                                  germany




              +--------------------------------------------------+
              | Atomic coordinate, charge and isotop information |
              +--------------------------------------------------+

                    atomic coordinates            atom    charge  isotop
         -0.86772730   -2.44406216    0.00112137    c      6.000     0
         -2.57682480   -0.44647516    0.00113411    c      6.000     0
          1.67507123   -2.00835815    0.00113411    c      6.000     0
          2.55048357    0.47055720    0.00112137    c      6.000     0
          0.90175357    2.45483331    0.00113411    c      6.000     0
         -1.68275627    1.97350497    0.00112137    c      6.000     0
          3.52420447   -3.83912816    0.00049838    c      6.000     0
          2.32876557   -6.29068743    0.00055451    c      6.000     0
         -0.28055020   -6.76473618    0.00022113    n      7.000     0
         -1.93527208   -4.79844227    0.00025159    c      6.000     0
         -4.94396240   -4.19643898   -0.00073723    c      6.000     0
         -5.08688475   -1.13248651    0.00049838    c      6.000     0
         -6.61227790    1.12857357    0.00055451    c      6.000     0
         -5.71815828    3.62533169    0.00022113    n      7.000     0
         -3.18793686    4.07521592    0.00025159    c      6.000     0
         -1.16224157    6.37981652   -0.00073723    c      6.000     0
          1.56268028    4.97161468    0.00049838    c      6.000     0
          6.10620396   -2.18337754   -0.00073723    c      6.000     0
          5.12320894    0.72322635    0.00025159    c      6.000     0
          5.99870848    3.13940449    0.00022113    n      7.000     0
          4.28351233    5.16211386    0.00055451    c      6.000     0
          5.24360631    7.00356002    0.00111277    h      1.000     0
          7.28057315   -2.59385430    1.67889428    h      1.000     0
          7.27678353   -2.59374640   -1.68305091    h      1.000     0
          3.44345774   -8.04287628    0.00111277    h      1.000     0
         -8.68706405    1.03931626    0.00111277    h      1.000     0
         -5.88464204   -5.00500619   -1.68305091    h      1.000     0
         -5.88663030   -5.00823415    1.67889428    h      1.000     0
         -1.39214149    7.59875259   -1.68305091    h      1.000     0
         -1.39394285    7.60208845    1.67889428    h      1.000     0
 
       center of nuclear mass  :   -0.00000000    0.00000000    0.00038086
       center of nuclear charge:   -0.00000000    0.00000000    0.00033566
 
        ***************  Stationary point options ******************
        ************************************************************
           Maximum allowed trust radius:           3.000000E-01
           Minimum allowed trust radius:           1.000000E-03
           Initial trust radius:                   1.500000E-01
           GDIIS used if gradient norm <           1.000000E-02
           Number of previous steps for GDIIS:       5
           Hessian update method:                  Powell
           Initial index of transition vector:       1
                        *** Convergence criteria ***                
           Threshold for energy change:            1.000000E-06
           Threshold for max displacement element: 1.000000E-03
           Threshold for max gradient element :    1.000000E-03
           Threshold for RMS of displacement:      5.000000E-04
           Threshold for RMS of gradient:          5.000000E-04
        ************************************************************
 
     Number of symmetry restricted degrees of freedom:    30
     Constituted by:     1 translational degrees of freedom
                         1 rotational degrees of freedom
                      28 internal degrees of freedom

  *************************************************************************
   ATOM                      CARTESIAN COORDINATES
    1 c      -0.86772730085999     -2.44406216374397      0.00112137153046
    2 c      -2.57682479508694     -0.44647515878931      0.00113410815950
    3 c       1.67507122721370     -2.00835815425226      0.00113410815950
    4 c       2.55048357266063      0.47055719576994      0.00112137153046
    5 c       0.90175356787324      2.45483331304157      0.00113410815950
    6 c      -1.68275627180066      1.97350496797403      0.00112137153046
    7 c       3.52420446507382     -3.83912816240135      0.00049837876720
    8 c       2.32876557266514     -6.29068742534497      0.00055450553383
    9 n      -0.28055019899763     -6.76473617920710      0.00022113347415
   10 c      -1.93527208282730     -4.79844226898531      0.00025158807522
   11 c      -4.94396239742731     -4.19643898426641     -0.00073723084958
   12 c      -5.08688474956075     -1.13248651368379      0.00049837876720
   13 c      -6.61227790394865      1.12857356728587      0.00055450553383
   14 n      -5.71815828159421      3.62533168897230      0.00022113347415
   15 c      -3.18793686212068      4.07521592145592      0.00025158807522
   16 c      -1.16224156709242      6.37981652366027     -0.00073723084958
   17 c       1.56268028448693      4.97161467608515      0.00049837876720
   18 c       6.10620396451973     -2.18337753939386     -0.00073723084958
   19 c       5.12320894494798      0.72322634752938      0.00025158807522
   20 n       5.99870848059184      3.13940449023481      0.00022113347415
   21 c       4.28351233128351      5.16211385805912      0.00055450553383
   22 h       5.24360630902155      7.00356002271012      0.00111276749221
   23 h       7.28057314987575     -2.59385430335014      1.67889428329873
   24 h       7.27678352609839     -2.59374639951918     -1.68305090548172
   25 h       3.44345774208529     -8.04287628241208      0.00111276749221
   26 h      -8.68706405110687      1.03931625970196      0.00111276749221
   27 h      -5.88464203600722     -5.00500619168171     -1.68305090548172
   28 h      -5.88663029535468     -5.00823415022822      1.67889428329873
   29 h      -1.39214149009116      7.59875259120089     -1.68305090548172
   30 h      -1.39394285452107      7.60208845357836      1.67889428329873
  *************************************************************************
   ATOM                      CARTESIAN GRADIENTS  
    1 c      -0.00061594166419      0.00032326578921     -0.00000464752840
    2 c      -0.00119248688179     -0.00126543835735     -0.00000416472035
    3 c       0.00169214520528     -0.00040000475464     -0.00000416472035
    4 c       0.00002801444646     -0.00069505402304     -0.00000464752840
    5 c      -0.00049965832350      0.00166544311198     -0.00000416472035
    6 c       0.00058792721773      0.00037178823383     -0.00000464752840
    7 c      -0.00087378354298      0.00130770691198     -0.00000396950135
    8 c       0.00210650357357      0.00023233932178     -0.00000678315893
    9 n      -0.00183802917510     -0.00082152187845      0.00000266416899
   10 c      -0.00083460193295      0.00144468746075      0.00000863953391
   11 c       0.00068191037051      0.00006435133115      0.00000754284167
   12 c       0.00156939917797      0.00010286528964     -0.00000396950135
   13 c      -0.00085204003183     -0.00194045526877     -0.00000678315893
   14 n       0.00020755577104      0.00200254089776      0.00000266416899
   15 c       0.00166843700801      0.00000044274561      0.00000863953391
   16 c      -0.00028522529771     -0.00062272736954      0.00000754284167
   17 c      -0.00069561563499     -0.00141057220162     -0.00000396950135
   18 c      -0.00039668507280      0.00055837603839      0.00000754284167
   19 c      -0.00083383507506     -0.00144513020635      0.00000863953391
   20 n       0.00163047340405     -0.00118101901930      0.00000266416899
   21 c      -0.00125446354175      0.00170811594699     -0.00000678315893
   22 h       0.00006739700775      0.00027777196376      0.00000273976141
   23 h       0.00001720254966     -0.00005289290767     -0.00024787979968
   24 h       0.00000021633911     -0.00009499490331      0.00023667690974
   25 h       0.00020685907320     -0.00019725350273      0.00000273976141
   26 h      -0.00027425608095     -0.00008051846103      0.00000273976141
   27 h      -0.00008237616905      0.00004731009649      0.00023667690974
   28 h      -0.00005440787655      0.00001154860882     -0.00024787979968
   29 h       0.00008215982995      0.00004768480682      0.00023667690974
   30 h       0.00003720532689      0.00004134429885     -0.00024787979968
  *************************************************************************

  norm of actual CARTESIAN gradient:  7.34638E-03
  norm of actual INTERNAL  gradient:  5.73810E-03

  ENERGY =    -855.0349337410 a.u.; # of cycle =    4

  Approximate Hessian read from $hessapprox data section

  Hessian updated according to Powell formula
  Number of zero Hessian eigenvalues:   0

   5 first eigenvalues: 
 -0.13095838  0.02421807  0.03643635  0.05962061  0.06686800

  Eigenvalue of transition vector: -0.13095838

  Largest and next-largest overlaps:   0.99999996  0.00019207

  Old transition vector    1 has overlap 0.99999996 with the new    1

        ***************  Trust radius update info  *****************
                Actual energy change:       -2.75522E-03
                Predicted energy change:    -2.66065E-03
                Actual step radius:          1.48590E-01
                Actual trust radius:         0.300000
                Energy change ratio:         1.035545
                New trust radius:            0.300000
        ************************************************************

  Final step radius: 1.89700E-02

  Transforming internal coordinate displacements to Cartesian space
      Iteration   1 residual norm     1.897002E-02
      Iteration   2 residual norm     1.262924E-05
      Iteration   3 residual norm     6.766546E-11
      Transformation converged
      Residual norm:    6.766546E-11 after    3 iterations

      ****************************************************************** 
                          CONVERGENCE INFORMATION

                               Converged?     Value      Criterion
             Energy change         no       0.0027552   0.0000010
             RMS of displacement   no       0.0035850   0.0005000
             RMS of gradient       no       0.0010844   0.0005000
             MAX displacement      no       0.0143019   0.0010000
             MAX gradient          no       0.0041470   0.0010000
      ****************************************************************** 


    ------------------------------------------------------------------------
         total  cpu-time :   0.06 seconds
         total wall-time :   0.08 seconds
    ------------------------------------------------------------------------

   ****  statpt : all done  ****


    2018-03-20 23:03:32.098 


 statpt (c-17-23.gp.local) : TURBOMOLE V7.2 ( 21454 ) 2 Oct 2017 at 16:43:05
 Copyright (C) 2017 TURBOMOLE GmbH, Karlsruhe


    2018-03-20 23:03:40.319 



                           this is S T A T P T   


                     hessian and coordinate update for
                          stationary point search 

                     by barbara unterreiner, marek sierka,
                           and reinhart ahlrichs

                          quantum chemistry group
                          universitaet  karlsruhe
                                  germany




              +--------------------------------------------------+
              | Atomic coordinate, charge and isotop information |
              +--------------------------------------------------+

                    atomic coordinates            atom    charge  isotop
         -0.86716921   -2.44539002    0.00113520    c      6.000     0
         -2.57683393   -0.44634559    0.00107272    c      6.000     0
          1.67496358   -2.00843085    0.00107272    c      6.000     0
          2.55135448    0.47170445    0.00113520    c      6.000     0
          0.90187035    2.45477644    0.00107272    c      6.000     0
         -1.68418528    1.97368557    0.00113520    c      6.000     0
          3.52529938   -3.84082344    0.00028199    c      6.000     0
          2.32546020   -6.29131787    0.00051163    c      6.000     0
         -0.27576521   -6.76370430    0.00033021    n      7.000     0
         -1.93285344   -4.80145387    0.00047711    c      6.000     0
         -4.94622538   -4.19824428   -0.00071200    c      6.000     0
         -5.08890037   -1.13258710    0.00028199    c      6.000     0
         -6.61117120    1.13175132    0.00051163    c      6.000     0
         -5.71965714    3.62067182    0.00033021    n      7.000     0
         -3.19175430    4.07462712    0.00047711    c      6.000     0
         -1.16267351    6.38267897   -0.00071200    c      6.000     0
          1.56360098    4.97341054    0.00028199    c      6.000     0
          6.10889889   -2.18443469   -0.00071200    c      6.000     0
          5.12460774    0.72682675    0.00047711    c      6.000     0
          5.99542235    3.14303248    0.00033021    n      7.000     0
          4.28571100    5.15956655    0.00051163    c      6.000     0
          5.24742403    6.99960458    0.00085893    h      1.000     0
          7.28138142   -2.59350596    1.68109389    h      1.000     0
          7.27820994   -2.59208943   -1.68504968    h      1.000     0
          3.43812337   -8.04420481    0.00085893    h      1.000     0
         -8.68554740    1.04460023    0.00085893    h      1.000     0
         -5.88392026   -5.00706999   -1.68504968    h      1.000     0
         -5.88673275   -5.00910830    1.68109389    h      1.000     0
         -1.39428967    7.59915942   -1.68504968    h      1.000     0
         -1.39464866    7.60261426    1.68109389    h      1.000     0
 
       center of nuclear mass  :   -0.00000000    0.00000000    0.00038985
       center of nuclear charge:   -0.00000000    0.00000000    0.00034379
 
        ***************  Stationary point options ******************
        ************************************************************
           Maximum allowed trust radius:           3.000000E-01
           Minimum allowed trust radius:           1.000000E-03
           Initial trust radius:                   1.500000E-01
           GDIIS used if gradient norm <           1.000000E-02
           Number of previous steps for GDIIS:       5
           Hessian update method:                  Powell
           Initial index of transition vector:       1
                        *** Convergence criteria ***                
           Threshold for energy change:            1.000000E-06
           Threshold for max displacement element: 1.000000E-03
           Threshold for max gradient element :    1.000000E-03
           Threshold for RMS of displacement:      5.000000E-04
           Threshold for RMS of gradient:          5.000000E-04
        ************************************************************
 
     Number of symmetry restricted degrees of freedom:    30
     Constituted by:     1 translational degrees of freedom
                         1 rotational degrees of freedom
                      28 internal degrees of freedom

  *************************************************************************
   ATOM                      CARTESIAN COORDINATES
    1 c      -0.86716920740011     -2.44539002100313      0.00113520168386
    2 c      -2.57683393161477     -0.44634558904663      0.00107271614740
    3 c       1.67496358478889     -2.00843085158880      0.00107271614740
    4 c       2.55135448404972      0.47170444751346      0.00113520168386
    5 c       0.90187034682588      2.45477644063543      0.00107271614740
    6 c      -1.68418527664963      1.97368557348967      0.00113520168386
    7 c       3.52529938235744     -3.84082344485870      0.00028198649746
    8 c       2.32546020221962     -6.29131787106336      0.00051163491197
    9 n      -0.27576520619844     -6.76370430043746      0.00033021401241
   10 c      -1.93285344465105     -4.80145386523792      0.00047710794898
   11 c      -4.94622537603688     -4.19824427954526     -0.00071200142604
   12 c      -5.08890036587722     -1.13258709863778      0.00028198649746
   13 c      -6.61117120073373      1.13175132491981      0.00051163491197
   14 n      -5.71965714476567      3.62067182426646      0.00033021401241
   15 c      -3.19175430006951      4.07462711747903      0.00047710794898
   16 c      -1.16267350936045      6.38267896826381     -0.00071200142604
   17 c       1.56360098351977      4.97341054349649      0.00028198649746
   18 c       6.10889888539733     -2.18443468871854     -0.00071200142604
   19 c       5.12460774472056      0.72682674775888      0.00047710794898
   20 n       5.99542235096411      3.14303247617101      0.00033021401241
   21 c       4.28571099851411      5.15956654614358      0.00051163491197
   22 h       5.24742403403264      6.99960458465584      0.00085893030096
   23 h       7.28138141794737     -2.59350595872124      1.68109388742661
   24 h       7.27820993810465     -2.59208943023476     -1.68504967750361
   25 h       3.43812336974165     -8.04420481022921      0.00085893030096
   26 h      -8.68554740377431      1.04460022557336      0.00085893030096
   27 h      -5.88392026451675     -5.00706998535761     -1.68504967750361
   28 h      -5.88673275409259     -5.00910830322576      1.68109388742661
   29 h      -1.39428967358789      7.59915941559237     -1.68504967750361
   30 h      -1.39464866385478      7.60261426194700      1.68109388742661
  *************************************************************************
   ATOM                      CARTESIAN GRADIENTS  
    1 c       0.00014113506972      0.00014926836117     -0.00000662974989
    2 c      -0.00023972458723     -0.00013688237030     -0.00000191800282
    3 c       0.00023840590363     -0.00013916639731     -0.00000191800282
    4 c      -0.00019983772762      0.00004759237516     -0.00000662974989
    5 c       0.00000131868360      0.00027604876760     -0.00000191800282
    6 c       0.00005870265790     -0.00019686073633     -0.00000662974989
    7 c      -0.00015276944060      0.00014810256309     -0.00000566981919
    8 c      -0.00026934727598      0.00024920822772      0.00000397749358
    9 n       0.00024781608503      0.00003879440298     -0.00000213332037
   10 c      -0.00003255974365     -0.00010444344342      0.00001145248570
   11 c       0.00008586942696     -0.00004211594755     -0.00000345584424
   12 c       0.00020464530230      0.00005825093494     -0.00000566981919
   13 c       0.00035049429403      0.00010865746958      0.00000397749358
   14 n      -0.00009031110401     -0.00023401222659     -0.00000213332037
   15 c      -0.00007417080343      0.00008041928685      0.00001145248570
   16 c      -0.00007940819396     -0.00005330713138     -0.00000345584424
   17 c      -0.00005187586170     -0.00020635349802     -0.00000566981919
   18 c      -0.00000646123300      0.00009542307893     -0.00000345584424
   19 c       0.00010673054708      0.00002402415657      0.00001145248570
   20 n      -0.00015750498102      0.00019521782361     -0.00000213332037
   21 c      -0.00008114701804     -0.00035786569730      0.00000397749358
   22 h       0.00017832067810     -0.00010617390002     -0.00000069881065
   23 h       0.00000043463715     -0.00001807619765      0.00000735165885
   24 h      -0.00000410332231     -0.00001494282587     -0.00001105529401
   25 h      -0.00018110963369     -0.00010134328724     -0.00000069881065
   26 h       0.00000278895559      0.00020751718726     -0.00000069881065
   27 h      -0.00001088920565      0.00001102499429     -0.00001105529401
   28 h      -0.00001587176495      0.00000866169201      0.00000735165885
   29 h       0.00001499252796      0.00000391783158     -0.00001105529401
   30 h       0.00001543712779      0.00000941450564      0.00000735165885
  *************************************************************************

  norm of actual CARTESIAN gradient:  1.13105E-03
  norm of actual INTERNAL  gradient:  1.19352E-03

  ENERGY =    -855.0349776830 a.u.; # of cycle =    5

  Approximate Hessian read from $hessapprox data section

  Hessian updated according to Powell formula
  Number of zero Hessian eigenvalues:   0

   5 first eigenvalues: 
 -0.13095520  0.02423511  0.03642708  0.05962178  0.06688005

  Eigenvalue of transition vector: -0.13095520

  Largest and next-largest overlaps:   0.99999937  0.00060759

  Old transition vector    1 has overlap 0.99999937 with the new    1

        ***************  Trust radius update info  *****************
                Actual energy change:       -4.39420E-05
                Predicted energy change:    -4.63435E-05
                Actual step radius:          1.89700E-02
                Actual trust radius:         0.300000
                Energy change ratio:         0.948180
                New trust radius:            0.300000
        ************************************************************

  Final step radius: 4.48734E-03

  Transforming internal coordinate displacements to Cartesian space
      Iteration   1 residual norm     4.487340E-03
      Iteration   2 residual norm     3.373784E-06
      Iteration   3 residual norm     1.890142E-11
      Transformation converged
      Residual norm:    1.890142E-11 after    3 iterations

      ****************************************************************** 
                          CONVERGENCE INFORMATION

                               Converged?     Value      Criterion
             Energy change         no       0.0000439   0.0000010
             RMS of displacement   no       0.0008480   0.0005000
             RMS of gradient       yes      0.0002256   0.0005000
             MAX displacement      no       0.0031296   0.0010000
             MAX gradient          yes      0.0007263   0.0010000
      ****************************************************************** 


    ------------------------------------------------------------------------
         total  cpu-time :   0.06 seconds
         total wall-time :   0.08 seconds
    ------------------------------------------------------------------------

   ****  statpt : all done  ****


    2018-03-20 23:03:40.383 


 statpt (c-17-23.gp.local) : TURBOMOLE V7.2 ( 21454 ) 2 Oct 2017 at 16:43:05
 Copyright (C) 2017 TURBOMOLE GmbH, Karlsruhe


    2018-03-20 23:03:48.954 



                           this is S T A T P T   


                     hessian and coordinate update for
                          stationary point search 

                     by barbara unterreiner, marek sierka,
                           and reinhart ahlrichs

                          quantum chemistry group
                          universitaet  karlsruhe
                                  germany




              +--------------------------------------------------+
              | Atomic coordinate, charge and isotop information |
              +--------------------------------------------------+

                    atomic coordinates            atom    charge  isotop
         -0.86764349   -2.44552291    0.00092663    c      6.000     0
         -2.57687390   -0.44590248    0.00089890    c      6.000     0
          1.67459983   -2.00868702    0.00089890    c      6.000     0
          2.55170671    0.47136015    0.00092663    c      6.000     0
          0.90227407    2.45458950    0.00089890    c      6.000     0
         -1.68406322    1.97416276    0.00092663    c      6.000     0
          3.52509588   -3.84150749    0.00023135    c      6.000     0
          2.32614844   -6.29239408    0.00027879    c      6.000     0
         -0.27612779   -6.76439109    0.00005399    n      7.000     0
         -1.93301372   -4.80171214    0.00019403    c      6.000     0
         -4.94719775   -4.19773950   -0.00050768    c      6.000     0
         -5.08939101   -1.13206884    0.00023135    c      6.000     0
         -6.61244734    1.13169340    0.00027879    c      6.000     0
         -5.72007063    3.62132922    0.00005399    n      7.000     0
         -3.19189783    4.07489505    0.00019403    c      6.000     0
         -1.16175017    6.38326868   -0.00050768    c      6.000     0
          1.56429513    4.97357632    0.00023135    c      6.000     0
          6.10894792   -2.18552918   -0.00050768    c      6.000     0
          5.12491155    0.72681708    0.00019403    c      6.000     0
          5.99619842    3.14306186    0.00005399    n      7.000     0
          4.28629890    5.16070068    0.00027879    c      6.000     0
          5.24555280    7.00207629    0.00049312    h      1.000     0
          7.28065457   -2.59403068    1.68190153    h      1.000     0
          7.27862281   -2.59329165   -1.68447065    h      1.000     0
          3.44119955   -8.04382013    0.00049312    h      1.000     0
         -8.68675235    1.04174384    0.00049312    h      1.000     0
         -5.88516785   -5.00682644   -1.68447065    h      1.000     0
         -5.88682375   -5.00821647    1.68190153    h      1.000     0
         -1.39345496    7.60011809   -1.68447065    h      1.000     0
         -1.39383082    7.60224715    1.68190153    h      1.000     0
 
       center of nuclear mass  :   -0.00000000    0.00000000    0.00025759
       center of nuclear charge:   -0.00000000    0.00000000    0.00022683
 
        ***************  Stationary point options ******************
        ************************************************************
           Maximum allowed trust radius:           3.000000E-01
           Minimum allowed trust radius:           1.000000E-03
           Initial trust radius:                   1.500000E-01
           GDIIS used if gradient norm <           1.000000E-02
           Number of previous steps for GDIIS:       5
           Hessian update method:                  Powell
           Initial index of transition vector:       1
                        *** Convergence criteria ***                
           Threshold for energy change:            1.000000E-06
           Threshold for max displacement element: 1.000000E-03
           Threshold for max gradient element :    1.000000E-03
           Threshold for RMS of displacement:      5.000000E-04
           Threshold for RMS of gradient:          5.000000E-04
        ************************************************************
 
     Number of symmetry restricted degrees of freedom:    30
     Constituted by:     1 translational degrees of freedom
                         1 rotational degrees of freedom
                      28 internal degrees of freedom

  *************************************************************************
   ATOM                      CARTESIAN COORDINATES
    1 c      -0.86764349239602     -2.44552291329488      0.00092662862222
    2 c      -2.57687390017114     -0.44590248186803      0.00089889628030
    3 c       1.67459982699381     -2.00868701896327      0.00089889628030
    4 c       2.55170671464830      0.47136015080425      0.00092662862222
    5 c       0.90227407317733      2.45458950083130      0.00089889628030
    6 c      -1.68406322225230      1.97416276249064      0.00092662862222
    7 c       3.52509587756661     -3.84150748807269      0.00023134745374
    8 c       2.32614844004098     -6.29239407872743      0.00027879141040
    9 n      -0.27612778878381     -6.76439108870924      0.00005399467315
   10 c      -1.93301371785592     -4.80171213887731      0.00019402697737
   11 c      -4.94719775066290     -4.19773950155137     -0.00050768462660
   12 c      -5.08939101228241     -1.13206883671213      0.00023134745374
   13 c      -6.61244734282124      1.13169339731470      0.00027879141040
   14 n      -5.72007062956337      3.62132922413225      0.00005399467315
   15 c      -3.19189783499991      4.07489505496569      0.00019402697737
   16 c      -1.16175017148146      6.38326868039499     -0.00050768462660
   17 c       1.56429513471579      4.97357632478483      0.00023134745374
   18 c       6.10894792214436     -2.18552917884361     -0.00050768462660
   19 c       5.12491155285583      0.72681708391161      0.00019402697737
   20 n       5.99619841834718      3.14306186457700      0.00005399467315
   21 c       4.28629890278026      5.16070068141276      0.00027879141040
   22 h       5.24555279955120      7.00207629049449      0.00049312018675
   23 h       7.28065456689249     -2.59403067960607      1.68190152818313
   24 h       7.27862281488575     -2.59329164886474     -1.68447064916047
   25 h       3.44119954702933     -8.04382012655118      0.00049312018675
   26 h      -8.68675234658055      1.04174383605667      0.00049312018675
   27 h      -5.88516785478177     -5.00682643782368     -1.68447064916047
   28 h      -5.88682375018131     -5.00821647130505      1.68190152818313
   29 h      -1.39345496010397      7.60011808668842     -1.68447064916047
   30 h      -1.39383081671118      7.60224715091112      1.68190152818313
  *************************************************************************
   ATOM                      CARTESIAN GRADIENTS  
    1 c       0.00001841059792      0.00003619155825     -0.00000138510064
    2 c      -0.00007517995731     -0.00003173575376     -0.00000309668729
    3 c       0.00006507394762     -0.00004923987600     -0.00000309668729
    4 c      -0.00004054810781     -0.00000215173362     -0.00000138510064
    5 c       0.00001010600968      0.00008097562976     -0.00000309668729
    6 c       0.00002213750988     -0.00003403982463     -0.00000138510064
    7 c      -0.00007642734632      0.00004091273383      0.00000340814898
    8 c      -0.00000626354709     -0.00001851884723      0.00000128517567
    9 n      -0.00001411429895     -0.00001137300879      0.00000000239884
   10 c      -0.00000453373648     -0.00000623656541     -0.00000421055979
   11 c      -0.00004861720023     -0.00003502326593     -0.00000286634637
   12 c       0.00007364513999      0.00004573165654      0.00000340814898
   13 c      -0.00001290601861      0.00001468381451      0.00000128517567
   14 n      -0.00000279216505      0.00001790984584      0.00000000239884
   15 c      -0.00000313415584      0.00000704461367     -0.00000421055979
   16 c      -0.00000602243790      0.00005961536343     -0.00000286634637
   17 c       0.00000278220633     -0.00008664439037      0.00000340814898
   18 c       0.00005463963813     -0.00002459209750     -0.00000286634637
   19 c       0.00000766789231     -0.00000080804826     -0.00000421055979
   20 n       0.00001690646400     -0.00000653683705      0.00000000239884
   21 c       0.00001916956570      0.00000383503272      0.00000128517567
   22 h       0.00001680484192      0.00001093361287     -0.00000307649280
   23 h      -0.00001799227351     -0.00000247132222      0.00000393811631
   24 h      -0.00001940790028     -0.00000322153970     -0.00000281111144
   25 h       0.00000106636554     -0.00002002022645     -0.00000307649280
   26 h      -0.00001787120746      0.00000908661358     -0.00000307649280
   27 h       0.00000691401492      0.00001841850453     -0.00000281111144
   28 h       0.00000685590893      0.00001681742704      0.00000393811631
   29 h       0.00001249388536     -0.00001519696483     -0.00000281111144
   30 h       0.00001113636457     -0.00001434610482      0.00000393811631
  *************************************************************************

  norm of actual CARTESIAN gradient:  2.53293E-04
  norm of actual INTERNAL  gradient:  1.77916E-04

  ENERGY =    -855.0349804981 a.u.; # of cycle =    6

  Approximate Hessian read from $hessapprox data section

  Hessian updated according to Powell formula
  Number of zero Hessian eigenvalues:   0

   5 first eigenvalues: 
 -0.13092816  0.02446925  0.03636091  0.05962483  0.06687540

  Eigenvalue of transition vector: -0.13092816

  Largest and next-largest overlaps:   0.99998509  0.00301871

  Old transition vector    1 has overlap 0.99998509 with the new    1

        ***************  Trust radius update info  *****************
                Actual energy change:       -2.81510E-06
                Predicted energy change:    -2.13581E-06
                Actual step radius:          4.48734E-03
                Actual trust radius:         0.300000
                Energy change ratio:         1.318045
                New trust radius:            0.300000
        ************************************************************

  Final step radius: 6.86234E-04

  Transforming internal coordinate displacements to Cartesian space
      Iteration   1 residual norm     6.862338E-04
      Iteration   2 residual norm     6.242250E-08
      Iteration   3 residual norm     1.882973E-12
      Transformation converged
      Residual norm:    1.882973E-12 after    3 iterations

      ****************************************************************** 
                          CONVERGENCE INFORMATION

                               Converged?     Value      Criterion
             Energy change         no       0.0000028   0.0000010
             RMS of displacement   yes      0.0001297   0.0005000
             RMS of gradient       yes      0.0000336   0.0005000
             MAX displacement      yes      0.0004714   0.0010000
             MAX gradient          yes      0.0001193   0.0010000
      ****************************************************************** 


    ------------------------------------------------------------------------
         total  cpu-time :   0.05 seconds
         total wall-time :   0.08 seconds
    ------------------------------------------------------------------------

   ****  statpt : all done  ****


    2018-03-20 23:03:49.019 


 statpt (c-17-23.gp.local) : TURBOMOLE V7.2 ( 21454 ) 2 Oct 2017 at 16:43:05
 Copyright (C) 2017 TURBOMOLE GmbH, Karlsruhe


    2018-03-20 23:03:56.102 



                           this is S T A T P T   


                     hessian and coordinate update for
                          stationary point search 

                     by barbara unterreiner, marek sierka,
                           and reinhart ahlrichs

                          quantum chemistry group
                          universitaet  karlsruhe
                                  germany




              +--------------------------------------------------+
              | Atomic coordinate, charge and isotop information |
              +--------------------------------------------------+

                    atomic coordinates            atom    charge  isotop
         -0.86767793   -2.44553897    0.00091935    c      6.000     0
         -2.57682371   -0.44586232    0.00087271    c      6.000     0
          1.67453995   -2.00866363    0.00087271    c      6.000     0
          2.55173784    0.47133835    0.00091935    c      6.000     0
          0.90228376    2.45452595    0.00087271    c      6.000     0
         -1.68405991    1.97420062    0.00091935    c      6.000     0
          3.52517444   -3.84147526    0.00016574    c      6.000     0
          2.32614776   -6.29225507    0.00029404    c      6.000     0
         -0.27611676   -6.76429119    0.00010705    n      7.000     0
         -1.93304606   -4.80169957    0.00024294    c      6.000     0
         -4.94713440   -4.19765481   -0.00054165    c      6.000     0
         -5.08940239   -1.13215299    0.00016574    c      6.000     0
         -6.61232662    1.13162448    0.00029404    c      6.000     0
         -5.71998963    3.62126973    0.00010705    n      7.000     0
         -3.19187078    4.07491678    0.00024294    c      6.000     0
         -1.16170851    6.38317147   -0.00054165    c      6.000     0
          1.56422795    4.97362825    0.00016574    c      6.000     0
          6.10884290   -2.18551666   -0.00054165    c      6.000     0
          5.12491684    0.72678280    0.00024294    c      6.000     0
          5.99610639    3.14302147    0.00010705    n      7.000     0
          4.28617885    5.16063059    0.00029404    c      6.000     0
          5.24542904    7.00195544    0.00068563    h      1.000     0
          7.28080620   -2.59418277    1.68168283    h      1.000     0
          7.27869127   -2.59329079   -1.68442864    h      1.000     0
          3.44115676   -8.04365252    0.00068563    h      1.000     0
         -8.68658580    1.04169708    0.00068563    h      1.000     0
         -5.88520133   -5.00688615   -1.68442864    h      1.000     0
         -5.88703128   -5.00827175    1.68168283    h      1.000     0
         -1.39348993    7.60017694   -1.68442864    h      1.000     0
         -1.39377492    7.60245452    1.68168283    h      1.000     0
 
       center of nuclear mass  :   -0.00000000    0.00000000    0.00025682
       center of nuclear charge:   -0.00000000    0.00000000    0.00022626
 
        ***************  Stationary point options ******************
        ************************************************************
           Maximum allowed trust radius:           3.000000E-01
           Minimum allowed trust radius:           1.000000E-03
           Initial trust radius:                   1.500000E-01
           GDIIS used if gradient norm <           1.000000E-02
           Number of previous steps for GDIIS:       5
           Hessian update method:                  Powell
           Initial index of transition vector:       1
                        *** Convergence criteria ***                
           Threshold for energy change:            1.000000E-06
           Threshold for max displacement element: 1.000000E-03
           Threshold for max gradient element :    1.000000E-03
           Threshold for RMS of displacement:      5.000000E-04
           Threshold for RMS of gradient:          5.000000E-04
        ************************************************************
 
     Number of symmetry restricted degrees of freedom:    30
     Constituted by:     1 translational degrees of freedom
                         1 rotational degrees of freedom
                      28 internal degrees of freedom

  *************************************************************************
   ATOM                      CARTESIAN COORDINATES
    1 c      -0.86767793424643     -2.44553897367748      0.00091934976902
    2 c      -2.57682370548967     -0.44586232119501      0.00087271395952
    3 c       1.67453994949001     -2.00866362943049      0.00087271395952
    4 c       2.55173784427283      0.47133835347814      0.00091934976902
    5 c       0.90228375599966      2.45452595062550      0.00087271395952
    6 c      -1.68405991002642      1.97420062019934      0.00091934976902
    7 c       3.52517444157105     -3.84147526335460      0.00016573602504
    8 c       2.32614776495728     -6.29225506757781      0.00029403741883
    9 n      -0.27611676147227     -6.76429119109810      0.00010704726717
   10 c      -1.93304605590005     -4.80169957409130      0.00024294354017
   11 c      -4.94713439716148     -4.19765481307033     -0.00054165328511
   12 c      -5.08940238686013     -1.13215298749485      0.00016573602504
   13 c      -6.61232661809241      1.13162447637953      0.00029403741883
   14 n      -5.71998962935011      3.62126972539475      0.00010704726717
   15 c      -3.19187078455397      4.07491677814041      0.00024294354017
   16 c      -1.16170850585618      6.38317147041282     -0.00054165328511
   17 c       1.56422794528907      4.97362825084945      0.00016573602504
   18 c       6.10884290301766     -2.18551665734248     -0.00054165328511
   19 c       5.12491684045402      0.72678279595088      0.00024294354017
   20 n       5.99610639082238      3.14302146570336      0.00010704726717
   21 c       4.28617885313513      5.16063059119831      0.00029403741883
   22 h       5.24542903981600      7.00195543697472      0.00068563485902
   23 h       7.28080620470473     -2.59418276831845      1.68168283240485
   24 h       7.27869126678463     -2.59329078606152     -1.68442864195852
   25 h       3.44115676467867     -8.04365252071665      0.00068563485902
   26 h      -8.68658580449469      1.04169708374191      0.00068563485902
   27 h      -5.88520133352170     -5.00688615030866     -1.68442864195852
   28 h      -5.88703128177598     -5.00827174914644      1.68168283240485
   29 h      -1.39348993326292      7.60017693637018     -1.68442864195852
   30 h      -1.39377492292876      7.60245451746489      1.68168283240485
  *************************************************************************
   ATOM                      CARTESIAN GRADIENTS  
    1 c       0.00000232263335      0.00000415683016     -0.00000194401548
    2 c      -0.00002638157744     -0.00000279564405     -0.00000093883333
    3 c       0.00001561188749     -0.00002144929423     -0.00000093883333
    4 c      -0.00000476123719     -0.00000006695559     -0.00000194401548
    5 c       0.00001076968995      0.00002424493828     -0.00000093883333
    6 c       0.00000243860385     -0.00000408987456     -0.00000194401548
    7 c      -0.00002117490275      0.00000541176798     -0.00000256559408
    8 c      -0.00001182527772     -0.00000235658830     -0.00000326450679
    9 n      -0.00001089597281      0.00000602996262     -0.00000092304834
   10 c      -0.00000456025141     -0.00001094757054      0.00000183344690
   11 c      -0.00000658424229      0.00000571472844      0.00000004999531
   12 c       0.00001527417992      0.00001563211971     -0.00000256559408
   13 c       0.00000387177353      0.00001141928506     -0.00000326450679
   14 n       0.00001067008722      0.00000642120794     -0.00000092304834
   15 c      -0.00000720074849      0.00000942307884      0.00000183344690
   16 c       0.00000824122115      0.00000284475686      0.00000004999531
   17 c       0.00000590072283     -0.00002104388769     -0.00000256559408
   18 c      -0.00000165697886     -0.00000855948531      0.00000004999531
   19 c       0.00001176099990      0.00000152449170      0.00000183344690
   20 n       0.00000022588559     -0.00001245117056     -0.00000092304834
   21 c       0.00000795350419     -0.00000906269676     -0.00000326450679
   22 h       0.00000687272765     -0.00000419285045      0.00000079661036
   23 h      -0.00000304794665     -0.00000935570576     -0.00000125152068
   24 h      -0.00000332631097     -0.00000953878765     -0.00000063377659
   25 h      -0.00000706747882     -0.00000385553151      0.00000079661036
   26 h       0.00000019475118      0.00000804838196      0.00000079661036
   27 h      -0.00000659767694      0.00000765006363     -0.00000063377659
   28 h      -0.00000657830554      0.00000731745211     -0.00000125152068
   29 h       0.00000992398792      0.00000188872402     -0.00000063377659
   30 h       0.00000962625218      0.00000203825366     -0.00000125152068
  *************************************************************************

  norm of actual CARTESIAN gradient:  7.77240E-05
  norm of actual INTERNAL  gradient:  4.51706E-05

  ENERGY =    -855.0349806797 a.u.; # of cycle =    7

  Approximate Hessian read from $hessapprox data section

  Hessian updated according to Powell formula
  Number of zero Hessian eigenvalues:   0

   5 first eigenvalues: 
 -0.13025632  0.02578248  0.03681890  0.05986475  0.06689281

  Eigenvalue of transition vector: -0.13025632

  Largest and next-largest overlaps:   0.99977488  0.01265670

  Old transition vector    1 has overlap 0.99977488 with the new    1

        ***************  Trust radius update info  *****************
                Actual energy change:       -1.81600E-07
                Predicted energy change:    -4.45001E-08
                Actual step radius:          6.86234E-04
                Actual trust radius:         0.300000
                Energy change ratio:         4.080886
                New trust radius:            0.001000
        ************************************************************

  Final step radius: 1.40032E-04

  Transforming internal coordinate displacements to Cartesian space
      Iteration   1 residual norm     1.400325E-04
      Iteration   2 residual norm     4.501832E-09
      Transformation converged
      Residual norm:    4.501832E-09 after    2 iterations

      ****************************************************************** 
                          CONVERGENCE INFORMATION

                               Converged?     Value      Criterion
             Energy change         yes      0.0000002   0.0000010
             RMS of displacement   yes      0.0000265   0.0005000
             RMS of gradient       yes      0.0000085   0.0005000
             MAX displacement      yes      0.0000622   0.0010000
             MAX gradient          yes      0.0000353   0.0010000
      ****************************************************************** 


    ------------------------------------------------------------------------
         total  cpu-time :   0.06 seconds
         total wall-time :   0.08 seconds
    ------------------------------------------------------------------------

   ****  statpt : all done  ****


    2018-03-20 23:03:56.164 

