
OPTIMIZATION CYCLE 410
Wed Mar  7 23:42:36 PST 2018
 hostname is c-5-30.local

 frog (c-5-30.local) : TURBOMOLE V7.1 ( ) 5 Apr 2016 at 11:29:09
 Copyright (C) 2016 TURBOMOLE GmbH, Karlsruhe


    2018-03-07 23:42:36.535 


 frog (c-5-30.local) : TURBOMOLE V7.1 ( ) 5 Apr 2016 at 11:29:09
 Copyright (C) 2016 TURBOMOLE GmbH, Karlsruhe


    2018-03-07 23:42:36.535 

 
       `--._            A b     I n i t i o           .-
            `.  M o l e c u l a r   D y n a m i c s  /
              \               .-.       .           / 
               \             /   \     / `.        /  
                `-----._    /     `._.'    `--.__.'   
                        `--'                          
 
 

Reading information from mdmaster                                                                        
 
 =========================================
 TDDFT-SURFACE HOPPING switched on
 Tapavicza, Meyer, and Furche,
 Phys. Chem. Chem. Phys. 13 (2011), 20986.
 =========================================
 
 found keyword $gap_threshold; hop is enforced if gap <  0.500000000000000     
Reading log history information from mdmaster                                                                        
Reading input data from mdlog.2                                                                         
Checking for non-default isotopic masses in control                                                                         
 
No constraints requested.
Reading status from mdmaster                                                                        
Reading actions from mdmaster                                                                        
Getting gradients from control                                                                         
 non-adiabatic coupling vector
  0.149510623152100      -5.609080227237400E-002  7.719339984793500E-002
 -3.114259361292600E-003 -2.466888898882400E-003  1.027113381105800E-002
  5.992770425754000E-002 -9.905248960595400E-002  2.682375546550600E-002
  3.366078619888600E-002 -1.006985739530100E-002  2.494731384456500E-003
 -0.240725248582380      -1.967851936340900E-003 -8.074112625568200E-002
 -0.122590270751990      -1.405592659210800E-002 -2.660781028044100E-002
  1.444112640753400E-002 -6.392580669866101E-002  6.748073771897900E-003
 -3.021491068821100E-003 -9.086221900434900E-003  1.083532282728000E-003
  3.423214269967000E-003 -5.956752338841200E-003 -6.168412016970200E-003
 leap: Read last 2 entries of RUN.dat
 Old state:           0
 New state:           0
 Propagating Coefficients
 
 ==============Surface Hopping Information================
 
 Probability from           1 to           2 :  1.083038058027702E-003
 Random number   0.602978716722312     
 
 COEFF OF STATE           1 = (0.981226654574314,-2.081052674693282E-003)
 COEFF OF STATE           2 = (3.430786853119124E-002,0.189770629259530)
 
 POPULATION OF STATE           1 =  0.962810078427335     
 POPULATION OF STATE           2 =  3.718992157271138E-002
 SUM OF ALL POPULATIONS =   1.00000000000005     
 
 =========================================================
 
Scaling KE by   0.984584495787    
 
Generating $log data for last completed MD step:                                
t=   16360.0000000                                                              
-0.848193110963E-01  0.137565440373      0.200004319536E-01 ti                  
 0.927899206902      -2.78992277431       2.05317719097     o                   
 -2.37454921104     -0.957249338638      -2.44797705045     o                   
 -2.75387774786      -2.18054824452      -3.57572472616     h                   
 -1.07947780881       2.98948299117       2.37751215446     o                   
 -1.59302940862       4.64466511945       4.06049475731     h                   
  2.74820434486      0.323777593953      -2.08493650769     o                   
  3.78926532486     -0.409409196180      -3.56709671828     h                   
  1.06336120192      -1.70455644771       3.75447345641     h                   
  40.0000000000       0.00000000000                                             
ti       -0.836555039667E-04  0.710522410254E-04 -0.235979595772E-03            
o        -0.779600093977E-03 -0.308940347674E-03  0.521436214938E-03            
o         0.452699778997E-03 -0.827980453097E-05  0.450550217651E-03            
h         0.500614361603E-03 -0.356164692706E-03  0.550015537051E-03            
o         0.809452147838E-03 -0.135705518589E-02 -0.344225846847E-03            
h         0.882159261409E-03  0.122771620512E-02 -0.187088697954E-02            
o        -0.213361904738E-03  0.877059844183E-03  0.159382880193E-04            
h        -0.106929678786E-02  0.147434514067E-02 -0.168231626727E-02            
h        -0.610885385308E-03  0.693172804451E-02  0.399987093103E-02            
 0.138798610607      -1151.97683882       0.00000000000                         
-0.146120378698E-01  0.152284037668E-01  0.145205490966E-01                     
 0.181403604317E-01 -0.920865506716E-01 -0.292259100260E-01                     
-0.392554091514E-01 -0.744873878646E-01 -0.957666024973E-01                     
 0.125668646484E-01  0.543125829051E-01  0.477059000736E-01                     
 0.573389342923E-02 -0.251911174414E-01 -0.381902828378E-01                     
-0.287998119221E-01  0.894010203969E-01  0.913331358262E-01                     
 0.556971323319E-02  0.106107772874E-01  0.590055999031E-02                     
 0.372083945635E-01 -0.206476091805E-01 -0.477207231380E-01                     
 0.344803263205E-02  0.428598808017E-01  0.514433735058E-01                     
 

   Time t=   16360.0000000     a.u. (  395.715680000     fs)

   e x e c u t i n g    M D   s t e p   (leapfrog algorithm)

   Number of MD steps left:    1090
 
   Time t=   16400.0000000     a.u. (  396.683200000     fs)

 
Provisional $current data:                                                      
t=   16400.0000000                                                              
-0.878977777203E-01  0.140128482083      0.102951710443E-01 ti                  
 0.895720021967      -2.79722851496       2.07563797461     o                   
 -2.35428766596     -0.953494148604      -2.42470128064     o                   
 -2.74479624568      -2.24208956624      -3.59526581995     h                   
 -1.04741428461       2.93658276983       2.36583824161     o                   
 -1.53266451360       4.61592445072       3.90612749867     h                   
  2.73936431389      0.358277879892      -2.08462268122     o                   
  3.71409283769     -0.332455704595      -3.59283474595     h                   
  1.03592328179      -1.46460918679       3.86967203215     h                   
  40.0000000000       0.00000000000                                             
ti       -0.763661602421E-04  0.635802423209E-04 -0.240754115707E-03            
o        -0.798254811033E-03 -0.181230277648E-03  0.557174727511E-03            
o         0.502619189024E-03  0.931533386199E-04  0.577391729167E-03            
h         0.225280808619E-03 -0.152662835434E-02 -0.484747272616E-03            
o         0.795385666404E-03 -0.131227239830E-02 -0.289589593780E-03            
h         0.149744525737E-02 -0.712957060068E-03 -0.382932032385E-02            
o        -0.219290739092E-03  0.855833337247E-03  0.778495455634E-05            
h        -0.186477064791E-02  0.190895123688E-02 -0.638471871129E-03            
h        -0.680640351515E-03  0.595226559679E-02  0.285768012750E-02            
 
    50 energy records for statistics read from mdlog.2                                                                         
       Total Energy (H):
              current value   -1151.83804021    
                    average   -1151.83988822    
         standard deviation   0.535287802600E-02
                      drift   0.215614412627E-04
        jump from last step   0.682503982466E-02
 
     Kinetic Energy (H):
              current value   0.138798610607    
                    average   0.129894976270    
         standard deviation   0.202115646984E-01
                      drift  -0.840268371454E-04
 avg. quasi-temperature (K)    3906.08131129    
      number of constraints       0
 
         Pressure (GPa):
              current value    0.00000000000    
                    average    0.00000000000    
 
 
   approx integration error   0.832445261067E-01
 
Estimated integration error by reading last steps from mdlog.2                  
 
Generating $log data for last completed MD step:                                
t=   16360.0000000                                                              
-0.848193110963E-01  0.137565440373      0.200004319536E-01 ti                  
 0.927899206902      -2.78992277431       2.05317719097     o                   
 -2.37454921104     -0.957249338638      -2.44797705045     o                   
 -2.75387774786      -2.18054824452      -3.57572472616     h                   
 -1.07947780881       2.98948299117       2.37751215446     o                   
 -1.59302940862       4.64466511945       4.06049475731     h                   
  2.74820434486      0.323777593953      -2.08493650769     o                   
  3.78926532486     -0.409409196180      -3.56709671828     h                   
  1.06336120192      -1.70455644771       3.75447345641     h                   
  40.0000000000       0.00000000000                                             
ti       -0.836555039667E-04  0.710522410254E-04 -0.235979595772E-03            
o        -0.779600093977E-03 -0.308940347674E-03  0.521436214938E-03            
o         0.452699778997E-03 -0.827980453097E-05  0.450550217651E-03            
h         0.500614361603E-03 -0.356164692706E-03  0.550015537051E-03            
o         0.809452147838E-03 -0.135705518589E-02 -0.344225846847E-03            
h         0.882159261409E-03  0.122771620512E-02 -0.187088697954E-02            
o        -0.213361904738E-03  0.877059844183E-03  0.159382880193E-04            
h        -0.106929678786E-02  0.147434514067E-02 -0.168231626727E-02            
h        -0.610885385308E-03  0.693172804451E-02  0.399987093103E-02            
 0.138798610607      -1151.97683882       0.00000000000                         
-0.146120378698E-01  0.152284037668E-01  0.145205490966E-01                     
 0.181403604317E-01 -0.920865506716E-01 -0.292259100260E-01                     
-0.392554091514E-01 -0.744873878646E-01 -0.957666024973E-01                     
 0.125668646484E-01  0.543125829051E-01  0.477059000736E-01                     
 0.573389342923E-02 -0.251911174414E-01 -0.381902828378E-01                     
-0.287998119221E-01  0.894010203969E-01  0.913331358262E-01                     
 0.556971323319E-02  0.106107772874E-01  0.590055999031E-02                     
 0.372083945635E-01 -0.206476091805E-01 -0.477207231380E-01                     
 0.344803263205E-02  0.428598808017E-01  0.514433735058E-01                     
 
Generated $current data for new MD step:                                        
t=   16400.0000000                                                              
-0.878977777203E-01  0.140128482083      0.102951710443E-01 ti                  
 0.895720021967      -2.79722851496       2.07563797461     o                   
 -2.35428766596     -0.953494148604      -2.42470128064     o                   
 -2.74479624568      -2.24208956624      -3.59526581995     h                   
 -1.04741428461       2.93658276983       2.36583824161     o                   
 -1.53266451360       4.61592445072       3.90612749867     h                   
  2.73936431389      0.358277879892      -2.08462268122     o                   
  3.71409283769     -0.332455704595      -3.59283474595     h                   
  1.03592328179      -1.46460918679       3.86967203215     h                   
  40.0000000000       0.00000000000                                             
ti       -0.763661602421E-04  0.635802423209E-04 -0.240754115707E-03            
o        -0.798254811033E-03 -0.181230277648E-03  0.557174727511E-03            
o         0.502619189024E-03  0.931533386199E-04  0.577391729167E-03            
h         0.225280808619E-03 -0.152662835434E-02 -0.484747272616E-03            
o         0.795385666404E-03 -0.131227239830E-02 -0.289589593780E-03            
h         0.149744525737E-02 -0.712957060068E-03 -0.382932032385E-02            
o        -0.219290739092E-03  0.855833337247E-03  0.778495455634E-05            
h        -0.186477064791E-02  0.190895123688E-02 -0.638471871129E-03            
h        -0.680640351515E-03  0.595226559679E-02  0.285768012750E-02            
 
Logging MD run data ($log) to file mdlog.2                                                                         
Writing data for next step ($current) to mdlog.2                                                                         

    2018-03-07 23:42:37.191 

         total cpu-time :   0.65 seconds
         total wall-time :   0.66 seconds

          ******************************************************



    ------------------------------------------------------------------------
         total  cpu-time :   0.66 seconds
         total wall-time :   0.66 seconds
    ------------------------------------------------------------------------

   ****  frog : all done  ****


    2018-03-07 23:42:37.191 

 operating system is UNIX !
 hostname is c-5-30.local

 ridft (c-5-30.local) : TURBOMOLE V7.1 ( ) 5 Apr 2016 at 11:29:09
 Copyright (C) 2016 TURBOMOLE GmbH, Karlsruhe


    2018-03-07 23:42:37.320 



                                  r i d f t

                        DFT program with RI approximation 
                                for coulomb part 




                                                 
                                 References:     
                                                 
          TURBOMOLE:                             
              R. Ahlrichs, M. Baer, M. Haeser, H. Horn, and
              C. Koelmel
              Electronic structure calculations on workstation
              computers: the program system TURBOMOLE
              Chem. Phys. Lett. 162: 165 (1989)
          Density Functional:                              
              O. Treutler and R. Ahlrichs                      
              Efficient Molecular Numerical Integration Schemes
              J. Chem. Phys. 102: 346 (1995)                   
          Parallel Version:                                
              Performance of parallel TURBOMOLE for Density    
              Functional Calculations                          
              M. v. Arnim and R. Ahlrichs                      
              J. Comp. Chem. 19: 1746 (1998)                   
          RI-J Method:                                     
              Auxiliary Basis Sets to approximate Coulomb      
              Potentials                                       
              Chem. Phys. Lett. 240: 283 (1995)                
              K. Eichkorn, O. Treutler, H. Oehm, M. Haeser     
              and R. Ahlrichs                                  
              Chem. Phys. Lett. 242: 652 (1995)                
                                                           
              Auxiliary Basis Sets for Main Row Atoms and their
              Use to approximate Coulomb Potentials            
              K. Eichkorn, F. Weigend, O. Treutler and         
              R. Ahlrichs                                      
              Theo. Chem. Acc. 97: 119 (1997)                   
                                                           
              Accurate Coulomb-fitting basis sets for H to Rn 
              F. Weigend                                        
              Phys. Chem. Chem. Phys. 8: 1057 (2006)            
                                                           
          Multipole accelerated RI-J (MARI-J):             
              Fast evaluation of the Coulomb potential for     
              electron densities using multipole accelerated   
              resolution of identity approximation             
              M. Sierka, A. Hogekamp and R. Ahlrichs           
              J. Chem. Phys. 118: 9136 (2003)                  
          RI-JK Method:                                     
              A fully direct RI-HF algorithm: Implementation,
              optimised auxiliary basis sets, demonstration of
              accuracy and efficiency                         
              F. Weigend                                      
              Phys. Chem. Chem. Phys. 4: 4285 (2002)           
          Two-component HF and DFT with spin-orbit coupling:  
              Self-consistent treatment of spin-orbit         
              interactions with efficient Hartree-Fock and    
              density functional methods                      
              M. K. Armbruster, F. Weigend, C. van Wüllen and 
              W. Klopper                                      
              Phys. Chem. Chem. Phys. 10: 1748 (2008)         
          Relativistic all-electron 2c calculations           
              An efficient implementation of two-component    
              relativistic exact-decoupling methods for large 
              molecules                                       
              D. Peng, N. Middendorf, F. Weigend, M. Reiher   
              J. Chem. Phys. 138, 184105 (2013)               
                                         


 


              +--------------------------------------------------+
              |      general information about current run       |
              +--------------------------------------------------+

 

 DENSITY CONVERGENCE CHECK SWITCHED ON !
 SCF CONVERGENCE IF RMS(delta[D]) <     0.1000000000E-06

 PBE0 hybrid functional
 exchange:    3/4 (LDA+PBE) + 1/4 HF
 correlation: LDA (PW) + PBE
 A Hybrid-DFT calculation using the RI-J approximation will be carried out.
 Allocatable memory for RI due to $ricore (MB):         500


              +--------------------------------------------------+
              | Atomic coordinate, charge and isotop information |
              +--------------------------------------------------+

                    atomic coordinates            atom    charge  isotop
         -0.08789778    0.14012848    0.01029517    ti    22.000     0
          0.89572002   -2.79722851    2.07563797    o      8.000     0
         -2.35428767   -0.95349415   -2.42470128    o      8.000     0
         -2.74479625   -2.24208957   -3.59526582    h      1.000     0
         -1.04741428    2.93658277    2.36583824    o      8.000     0
         -1.53266451    4.61592445    3.90612750    h      1.000     0
          2.73936431    0.35827788   -2.08462268    o      8.000     0
          3.71409284   -0.33245570   -3.59283475    h      1.000     0
          1.03592328   -1.46460919    3.86967203    h      1.000     0
 
       center of nuclear mass  :   -0.00000003    0.00000002   -0.00000001
       center of nuclear charge:    0.00699764    0.00021897    0.00467950

              +--------------------------------------------------+
              |               basis set information              |
              +--------------------------------------------------+

              we will work with the 1s 3p 5d 7f 9g ... basis set
              ...i.e. with spherical basis functions...

   type   atoms  prim   cont   basis
   ---------------------------------------------------------------------------
    ti       1     73     31   def2-SVP   [5s3p2d1f|14s9p5d1f]
    o        4     24     14   def2-SVP   [3s2p1d|7s4p1d]
    h        4      7      5   def2-SVP   [2s1p|4s1p]
   ---------------------------------------------------------------------------
   total:    9    197    107
   ---------------------------------------------------------------------------

   total number of primitive shells          :   46
   total number of contracted shells         :   47
   total number of cartesian basis functions :  116
   total number of SCF-basis functions       :  107


 integral neglect threshold       :  0.29E-10
 integral storage threshold THIZE :  0.10E-04
 integral storage threshold THIME :         5

 RI-J AUXILIARY BASIS SET information:

              we will work with the 1s 3p 5d 7f 9g ... basis set
              ...i.e. with spherical basis functions...

   type   atoms  prim   cont   basis
   ---------------------------------------------------------------------------
    ti       1    107     89   def2-SVP   [8s5p5d2f3g|19s5p5d3f3g]
    o        4     70     49   def2-SVP   [6s4p3d1f1g|12s5p4d2f1g]
    h        4     16     11   def2-SVP   [3s1p1d|5s2p1d]
   ---------------------------------------------------------------------------
   total:    9    451    329
   ---------------------------------------------------------------------------

   total number of primitive shells          :   67
   total number of contracted shells         :  103
   total number of cartesian basis functions :  410
   total number of SCF-basis functions       :  329


 symmetry group of the molecule :   c1 

 the group has the following generators :
   c1(z)

    1 symmetry operations found

 there are 1 real representations :   a   

 maximum number of shells which are related by symmetry :  1


    mo occupation :
   irrep   mo's   occupied
    a      107       29
 
 number of basis functions   :          107
 number of occupied orbitals :           29
 
  
           ------------------
           density functional
           ------------------
 PBE0 hybrid functional
 exchange:    3/4 (LDA+PBE) + 1/4 HF
 correlation: LDA (PW) + PBE
 iterations will be done with small grid
  
 spherical integration : Lebedev's spherical grid
 spherical gridsize    :           3
    i.e. gridpoints    :         302
 value for diffuse not defined
 radial integration    : Chebyshev 2nd kind (scaling 3)
 radial gridsize       :           3
 integration cells     :           9
 partition function    : becke
 partition sharpness   :           3
  

 biggest AO integral is expected to be    13.493451081
  
           ------------------------
               RI-J - INFORMATION
           ------------------------
 Contributions to RI integral batches: 
  neglected integral batches:          95
  direct contribution:                  0
  memory contribution:        1033
 Memory core needed for (P|Q) and Cholesky      1 MByte
 Memory core minimum needed except of (P|Q)     1 MByte
 Total minimum memory core needed (sum)         1 MByte
  
 ****************************************
 Memory allocated for RI-J    21 MByte
 ****************************************
                                            

          ------------------------
          nuclear repulsion energy  :   306.663596684    
          ------------------------

 
          -----------------
          -S,T+V- integrals
          -----------------

 1e-integrals will be neglected if expon. factor < 0.288100E-11
 
   Difference densities algorithm switched on.
   The maximal number of linear combinations of
   difference densities is          20 .

 DIIS switched on: error vector is FDS-SDF
 Max. Iterations for DIIS is     :   4
 DIIS matrix (see manual) 
    Scaling factor of diagonals  :  1.200
    threshold for scaling factor :  0.000

 scf convergence criterion : increment of total energy < .1000000D-06
                  and increment of one-electron energy < .1000000D-03

  MOs are in ASCII format !


 automatic virtual orbital shift switched on 
      shift if e(lumo)-e(homo) < 0.10000000    


 reading orbital data $scfmo  from file mos
 orbital characterization : scfconv=7

 DSCF restart information will be dumped onto file mos


 Starting SCF iterations

          Overall gridpoints after grid construction =         13521

 ITERATION  ENERGY          1e-ENERGY        2e-ENERGY     RMS[dD(SAO)]   TOL
   1  -1151.9761234820    -2191.7487092     733.10898901    0.000D+00 0.287D-10
                            Exc = -58.3195593917     Coul =  810.138025812    
                            exK = -18.7094774080    
                              N = 58.001797061    
                            current damping = 0.700
 
          max. resid. norm for Fia-block=  3.017D-02 for orbital     20a         
          max. resid. fock norm         =  1.334D-01 for orbital    105a         

 ITERATION  ENERGY          1e-ENERGY        2e-ENERGY     RMS[dD(SAO)]   TOL
   2  -1151.9798977789    -2191.7572114     733.11371692    0.112D-02 0.182D-10
                            Exc = -58.3160871004      Eck =  791.429804018    
                              N = 58.001776936    
                            current damping = 0.650
 
          Norm of current diis error: 0.65194E-01
          max. resid. norm for Fia-block=  1.364D-02 for orbital     16a         
          max. resid. fock norm         =  6.202D-02 for orbital    105a         

 ITERATION  ENERGY          1e-ENERGY        2e-ENERGY     RMS[dD(SAO)]   TOL
   3  -1151.9805934400    -2191.6056983     732.96150814    0.681D-03 0.148D-10
                            Exc = -58.3135848958      Eck =  791.275093033    
                              N = 58.001787170    
                            current damping = 0.600
 
          Norm of current diis error: 0.56332E-01
          max. resid. norm for Fia-block=  7.310D-03 for orbital     21a         
          max. resid. fock norm         =  2.291D-02 for orbital    105a         

 ITERATION  ENERGY          1e-ENERGY        2e-ENERGY     RMS[dD(SAO)]   TOL
   4  -1151.9810975577    -2191.7449839     733.10028967    0.337D-03 0.133D-10
                            Exc = -58.3125896407      Eck =  791.412879312    
                              N = 58.001778505    
                            current damping = 0.650
 
          Norm of current diis error: 0.16433E-01
          max. resid. norm for Fia-block=  2.456D-03 for orbital     21a         
          max. resid. fock norm         =  9.160D-03 for orbital    105a         

 ITERATION  ENERGY          1e-ENERGY        2e-ENERGY     RMS[dD(SAO)]   TOL
   5  -1151.9811185806    -2191.6107649     732.96604961    0.171D-03 0.128D-10
                            Exc = -58.3155573100      Eck =  791.281606922    
                              N = 58.001776483    
                            current damping = 0.700
 
          Norm of current diis error: 0.17733E-01
          max. resid. norm for Fia-block=  1.302D-03 for orbital     21a         
          max. resid. fock norm         =  3.707D-03 for orbital    105a         
          mo-orthogonalization: Cholesky decomposition

 ITERATION  ENERGY          1e-ENERGY        2e-ENERGY     RMS[dD(SAO)]   TOL
   6  -1151.9811638162    -2191.6762450     733.03148452    0.775D-04 0.123D-10
                            Exc = -58.3139726835      Eck =  791.345457205    
                              N = 58.001775455    
                            current damping = 0.750
 
          Norm of current diis error: 0.41446E-02
          max. resid. norm for Fia-block=  4.500D-04 for orbital     21a         
          max. resid. fock norm         =  1.702D-03 for orbital    105a         

 ITERATION  ENERGY          1e-ENERGY        2e-ENERGY     RMS[dD(SAO)]   TOL
   7  -1151.9811670012    -2191.6865096     733.04174594    0.289D-04 0.118D-10
                            Exc = -58.3137070716      Eck =  791.355453009    
                              N = 58.001775704    
                            current damping = 0.600
 
          Norm of current diis error: 0.18003E-02
          max. resid. norm for Fia-block=  2.778D-04 for orbital     21a         
          max. resid. fock norm         =  6.351D-04 for orbital    105a         

 ITERATION  ENERGY          1e-ENERGY        2e-ENERGY     RMS[dD(SAO)]   TOL
   8  -1151.9811677185    -2191.6928418     733.04807740    0.171D-04 0.114D-10
                            Exc = -58.3136054875      Eck =  791.361682890    
                              N = 58.001775202    
                            current damping = 0.450
 
          Norm of current diis error: 0.88069E-03
          max. resid. norm for Fia-block=  9.739D-05 for orbital     23a         
          max. resid. fock norm         =  2.452D-04 for orbital    105a         

 ITERATION  ENERGY          1e-ENERGY        2e-ENERGY     RMS[dD(SAO)]   TOL
   9  -1151.9811678733    -2191.6881658     733.04340122    0.835D-05 0.111D-10
                            Exc = -58.3136839632      Eck =  791.357085182    
                              N = 58.001775238    
                            current damping = 0.500
 
          Norm of current diis error: 0.52651E-03
          max. resid. norm for Fia-block=  4.734D-05 for orbital     27a         
          max. resid. fock norm         =  1.138D-04 for orbital    105a         

 ITERATION  ENERGY          1e-ENERGY        2e-ENERGY     RMS[dD(SAO)]   TOL
  10  -1151.9811679249    -2191.6895928     733.04482819    0.415D-05 0.107D-10
                            Exc = -58.3136449024      Eck =  791.358473091    
                              N = 58.001775197    
                            current damping = 0.550
 
          Norm of current diis error: 0.23994E-03
          max. resid. norm for Fia-block=  3.351D-05 for orbital     21a         
          max. resid. fock norm         =  3.624D-05 for orbital     21a         
          mo-orthogonalization: Cholesky decomposition

 ITERATION  ENERGY          1e-ENERGY        2e-ENERGY     RMS[dD(SAO)]   TOL
  11  -1151.9811679286    -2191.6911006     733.04633595    0.239D-05 0.105D-10
                            Exc = -58.3136264568      Eck =  791.359962405    
                              N = 58.001775170    
                            current damping = 0.400
 
          Norm of current diis error: 0.22905E-03
          max. resid. norm for Fia-block=  1.642D-05 for orbital     19a         
          max. resid. fock norm         =  2.427D-05 for orbital     93a         

 ITERATION  ENERGY          1e-ENERGY        2e-ENERGY     RMS[dD(SAO)]   TOL
  12  -1151.9811679360    -2191.6901466     733.04538197    0.139D-05 0.103D-10
                            Exc = -58.3136458216      Eck =  791.359027790    
                              N = 58.001775144    
                            current damping = 0.450
 
          Norm of current diis error: 0.92778E-04
          max. resid. norm for Fia-block=  6.156D-06 for orbital     23a         
          max. resid. fock norm         =  1.047D-05 for orbital     22a         

 ENERGY & DENSITY CONVERGED !

          Overall gridpoints after grid construction =         48729

 ITERATION  ENERGY          1e-ENERGY        2e-ENERGY     RMS[dD(SAO)]   TOL
  13  -1151.9802492792    -2191.6900605     733.04621454    0.625D-06 0.101D-10
                            Exc = -58.3127247503      Eck =  791.358939294    
                              N = 57.999996780    
                            current damping = 0.500
 
          Norm of current diis error: 0.39341E-04
          max. resid. norm for Fia-block=  3.337D-06 for orbital     18a         
          max. resid. fock norm         =  4.551D-06 for orbital     31a         

 End of SCF iterations

   convergence criteria satisfied after   13 iterations


                  ------------------------------------------ 
                 |  total energy      =  -1151.98024927921  |
                  ------------------------------------------ 
                 :  kinetic energy    =   1146.85498474104  :
                 :  potential energy  =  -2298.83523402025  :
                 :  virial theorem    =      1.99555090937  :
                 :  wavefunction norm =      1.00000000000  :
                  .......................................... 


 orbitals $scfmo  will be written to file mos

    irrep                 25a         26a         27a         28a         29a   
 eigenvalues H         -0.33419    -0.32314    -0.29907    -0.29274    -0.29027
            eV          -9.0939     -8.7931     -8.1381     -7.9660     -7.8987
 occupation              2.0000      2.0000      2.0000      2.0000      2.0000 

    irrep                 30a         31a         32a         33a         34a   
 eigenvalues H         -0.08050    -0.07610    -0.07124    -0.04273    -0.03632
            eV          -2.1906     -2.0709     -1.9386     -1.1627     -0.9883
 
 
 
 
 ==============================================================================
                           electrostatic moments
 ==============================================================================

 reference point for electrostatic moments:    0.00000   0.00000   0.00000

 
              nuc           elec       ->  total
 ------------------------------------------------------------------------------
                          charge      
 ------------------------------------------------------------------------------
          58.000000     -58.000000      -0.000000
 
 ------------------------------------------------------------------------------
                       dipole moment  
 ------------------------------------------------------------------------------
   x       0.405863      -0.447446      -0.041582
   y       0.012700       0.368594       0.381295
   z       0.271411      -0.424440      -0.153029
 
   | dipole moment | =     0.4130 a.u. =     1.0496 debye 
 
 ------------------------------------------------------------------------------
                     quadrupole moment
 ------------------------------------------------------------------------------
  xx     144.489988    -173.479638     -28.989650
  yy     168.905482    -197.693550     -28.788069
  zz     217.111256    -237.840144     -20.728888
  xy     -22.784346      23.015753       0.231407
  xz     -10.441209       8.676017      -1.765192
  yz      43.302020     -36.544261       6.757759
 
     1/3  trace=     -26.168869
     anisotropy=      14.598831
 
 ==============================================================================
 


    ------------------------------------------------------------------------
         total  cpu-time :  10.03 seconds
         total wall-time :  10.12 seconds
    ------------------------------------------------------------------------

   ****  ridft : all done  ****


    2018-03-07 23:42:47.354 

fine, there is no data group "$actual step"
next step = rdgrad
 hostname is c-5-30.local
           Doing BLAS/Lapack in the master proc. with  8 CPUs.
           SMPCPUS    set: Shared-memory Parallelization with   8 CPUs.

           SMP Parallelization Reference:
           C. van Wullen, J. Comput. Chem. 32 (2011) 1195--1201

 egrad (c-5-30.local) : TURBOMOLE V7.1 ( ) 5 Apr 2016 at 11:29:09
 Copyright (C) 2016 TURBOMOLE GmbH, Karlsruhe


    2018-03-07 23:42:47.645 




                               e g r a d

                       quantum chemistry group
                       university of karlsruhe
                               germany


             integral direct evaluation of excited state
                     and polarizability gradients
                 and first-order nonadiabatic couplings



          references (see also programs escf, dscf and ridft) 

          review 
          F. Furche and D. Rappoport,  
          "Density functional methods for excited states: 
          equilibrium structure and electronic spectra",
          ch. III of "Computational Photochemistry", ed. by 
          M. Olivucci, vol. 16 of "Theoretical and Computational 
          Chemistry", Elsevier, Amsterdam, 2005.

          RI-J method 
          D. Rappoport and F. Furche, 
          J. Chem. Phys. 122 (2005), 064105.

          Lagrangian method, implementation, benchmarks 
          F. Furche and R. Ahlrichs,
          J. Chem. Phys. 117 (2002), 7433;
          J. Chem. Phys. 121 (2004), 12772 (E).

          Polarizability derivatives, Raman intensities 
          D. Rappoport and F. Furche, 
          J. Chem. Phys. 126 (2007), 201104.

          First-order nonadiabatic couplings 
          R. Send and F. Furche, 
          J. Chem. Phys. 132 (2010), 044107.
                                     




              +--------------------------------------------------+
              | Atomic coordinate, charge and isotop information |
              +--------------------------------------------------+

                    atomic coordinates            atom    charge  isotop
         -0.08789778    0.14012848    0.01029517    ti    22.000     0
          0.89572002   -2.79722851    2.07563797    o      8.000     0
         -2.35428767   -0.95349415   -2.42470128    o      8.000     0
         -2.74479625   -2.24208957   -3.59526582    h      1.000     0
         -1.04741428    2.93658277    2.36583824    o      8.000     0
         -1.53266451    4.61592445    3.90612750    h      1.000     0
          2.73936431    0.35827788   -2.08462268    o      8.000     0
          3.71409284   -0.33245570   -3.59283475    h      1.000     0
          1.03592328   -1.46460919    3.86967203    h      1.000     0
 
       center of nuclear mass  :   -0.00000003    0.00000002   -0.00000001
       center of nuclear charge:    0.00699764    0.00021897    0.00467950

              +--------------------------------------------------+
              |               basis set information              |
              +--------------------------------------------------+

              we will work with the 1s 3p 5d 7f 9g ... basis set
              ...i.e. with spherical basis functions...

   type   atoms  prim   cont   basis
   ---------------------------------------------------------------------------
    ti       1     73     31   def2-SVP   [5s3p2d1f|14s9p5d1f]
    o        4     24     14   def2-SVP   [3s2p1d|7s4p1d]
    h        4      7      5   def2-SVP   [2s1p|4s1p]
   ---------------------------------------------------------------------------
   total:    9    197    107
   ---------------------------------------------------------------------------

   total number of primitive shells          :   46
   total number of contracted shells         :   47
   total number of cartesian basis functions :  116
   total number of SCF-basis functions       :  107


 residuum convergence criterium   :  0.10E-04


 integral neglect threshold       :  0.29E-10
 integral storage threshold THIZE :  0.10E-04
 integral storage threshold THIME :         5

 
             FOUND RI-J FLAG !
 
  
 AUXILIARY BASIS SET information:

              we will work with the 1s 3p 5d 7f 9g ... basis set
              ...i.e. with spherical basis functions...

   type   atoms  prim   cont   basis
   ---------------------------------------------------------------------------
    ti       1    107     89   def2-SVP   [8s5p5d2f3g|19s5p5d3f3g]
    o        4     70     49   def2-SVP   [6s4p3d1f1g|12s5p4d2f1g]
    h        4     16     11   def2-SVP   [3s1p1d|5s2p1d]
   ---------------------------------------------------------------------------
   total:    9    451    329
   ---------------------------------------------------------------------------

   total number of primitive shells          :   67
   total number of contracted shells         :  103
   total number of cartesian basis functions :  410
   total number of SCF-basis functions       :  329

 RPA SINGLET-EXCITATION-CALCULATION 
 
             FOUND DFT-FLAG !
 
 
 FOUND Nonadiabatic Coupling-FLAG !
 Note: the sign convention for NACME changed
 such that <0|d/dx|n> is now computed.

 symmetry group of the molecule :   c1 

 the group has the following generators :
   c1(z)

    1 symmetry operations found

 there are 1 real representations :   a   

 maximum number of shells which are related by symmetry :  1

 IRREP of excited state :   a   
 

 determining totally symmetric integral contributions 
    - equivalent to irreducible tensor elements - 
 which can be formed within each triple of representations :

             representation triple      contributions

              a     a     a               1

    mo occupation :
   irrep   mo's   occupied
    a      107       29
 
 number of basis functions   :          107
 number of occupied orbitals :           29
 
  
           ------------------
           density functional
           ------------------
 PBE0 hybrid functional
 exchange:    3/4 (LDA+PBE) + 1/4 HF
 correlation: LDA (PW) + PBE
 iterations will be done with small grid
  
 spherical integration : Lebedev's spherical grid
 spherical gridsize    :           3
    i.e. gridpoints    :         302
 value for diffuse not defined
 radial integration    : Chebyshev 2nd kind (scaling 3)
 radial gridsize       :           3
 integration cells     :           9
 partition function    : becke
 partition sharpness   :           3
  
 
 Derivatives of quadrature weights will be included
 
  
           ----------------------
               RI - INFORMATION
           ----------------------

 biggest AO integral is expected to be    13.493451081

 Threshold for integral neglect (rithr2):   0.29E-10
 Threshold for integral neglect (rithr1):   0.29E-10

 Contributions to RI integral batches: 
  neglected integral batches:          87
  direct contribution:                  0
  memory contribution:        1041
 Core memory available (ricore)            500 MiB
 Core memory needed for (P|Q) and Cholesky 1 MiB
 Core memory used for integrals            21 MiB
  
 ****************************************
 Memory allocated for RIDFT 21 MiB
 ****************************************
                                            
  MOs are in ASCII format !


 reading orbital data $scfmo  from file mos
 orbital characterization : scfconv=7
 preparing numerical integration ....
          Overall gridpoints after grid construction =         13521
 Ordering of quadrature gridpoints disabled.

 Calculating ground state density on molecular grid

 Integral of ground state density: N =   58.00177515939063    



 number of non-frozen orbitals          :   107
 number of non-frozen occupied orbitals :    29



                        -------------------
                         excitation vector 
                        -------------------


 dimension of super-tensorspace: 2

          IRREP   tensor space dimension   number of roots

           a              2262                   1

 maximum number of Davidson iterations set to   25


 machine precision: 2.22D-16


 logfile sing_a    exists already

 found      1 converged vectors on sing_a   
 read       1 vectors from logfile sing_a   



                       Nonorthonormal Krylov Space Iteration


 total number of roots to be determined:   1


 maximum core memory set to   500 MB,
 corresponding to     2317 vectors in CAO basis


 maximum number of simultaneously treated vectors (including degeneracy):        1


 Iteration IRREP Converged      Max. Euclidean
                 roots          residual norm

    1       a        0        1.415340573065167D-01
 
    2       a        0        4.714771869024573D-02
 
    3       a        0        3.290788128149660D-02
 
    4       a        0        1.296630255163443D-02
 
    5       a        0        1.130240118568185D-02
 
    6       a        0        7.545171008851366D-03
 
    7       a        0        6.357118333848112D-03
 
    8       a        0        6.818834181303953D-03
 
    9       a        0        8.558839610773470D-03
 
   10       a        0        1.052521502262390D-02
 
   11       a        0        1.037674292606628D-02
 
   12       a        0        1.039539903968058D-02
 
   13       a        0        7.095554983477214D-03
 
   14       a        0        5.905126702549730D-03
 
   15       a        0        3.209862241165780D-03
 
   16       a        0        2.684889270984735D-03
 
   17       a        0        1.417233173672744D-03
 
   18       a        0        9.753426147549634D-04
 
   19       a        0        5.359174773666768D-04
 
   20       a        0        3.625235440561556D-04
 
   21       a        0        2.170799011530231D-04
 
   22       a        0        1.372745363017045D-04
 
   23       a        0        6.863532606093487D-05
 
   24       a        0        5.241351793396973D-05
 
   25       a        0        3.770964743223212D-05
 


 Warning! No convergence within  25 iterations.
 Unless you have specified a very low $escfiterlimit/$forceiterlimit, 
 this is a reason to worry!



 IRREP   Vector     Eigenvalue           Euclidean residual norm

  a         1    1.481181367960930D-01    3.770964743223212D-05
 

 Deallocation failure for file unit arrays in <egrad>


========================
 internal module stack: 
------------------------
    egrad
========================

  abnormal termination
 egrad ended abnormally
error in gradient step (1)
