
OPTIMIZATION CYCLE 360
Wed Mar  7 22:52:12 PST 2018
 hostname is c-8-251.local

 frog (c-8-251.local) : TURBOMOLE V7.1 ( ) 5 Apr 2016 at 11:29:09
 Copyright (C) 2016 TURBOMOLE GmbH, Karlsruhe


    2018-03-07 22:52:12.319 


 frog (c-8-251.local) : TURBOMOLE V7.1 ( ) 5 Apr 2016 at 11:29:09
 Copyright (C) 2016 TURBOMOLE GmbH, Karlsruhe


    2018-03-07 22:52:12.320 

 
       `--._            A b     I n i t i o           .-
            `.  M o l e c u l a r   D y n a m i c s  /
              \               .-.       .           / 
               \             /   \     / `.        /  
                `-----._    /     `._.'    `--.__.'   
                        `--'                          
 
 

Reading information from mdmaster                                                                        
 
 =========================================
 TDDFT-SURFACE HOPPING switched on
 Tapavicza, Meyer, and Furche,
 Phys. Chem. Chem. Phys. 13 (2011), 20986.
 =========================================
 
 found keyword $gap_threshold; hop is enforced if gap <  0.500000000000000     
Reading log history information from mdmaster                                                                        
Reading input data from mdlog.2                                                                         
Checking for non-default isotopic masses in control                                                                         
 
No constraints requested.
Reading status from mdmaster                                                                        
Reading actions from mdmaster                                                                        
Getting gradients from control                                                                         
 non-adiabatic coupling vector
  0.388690340026030       0.154373860900890       0.154169953827660     
 -4.915468957764100E-002 -4.386101312107000E-002  2.084444107249600E-002
  5.484983456529000E-002  7.996211479928500E-002 -0.126821151029930     
 -5.353027657341900E-003  7.975982840218400E-003  5.423496035582200E-003
  1.140763358452100E-002 -2.767048781622300E-004 -1.388852876409800E-002
 -3.321802376682800E-004 -1.221781175401000E-003  1.779519431829100E-003
  0.269475751710050       0.174538968116650       1.261636016401000E-002
  5.914902314886900E-002  3.595335119158300E-002  4.021606091935900E-002
 -9.922366914525700E-003  2.220332276463100E-003  3.064763459130400E-003
 leap: Read last 2 entries of RUN.dat
 Old state:           0
 New state:           0
 Propagating Coefficients
 
 ==============Surface Hopping Information================
 
 Probability from           1 to           2 :  9.403286743682608E-004
 Random number   0.146454279519903     
 
 COEFF OF STATE           1 = (0.986873193077148,9.067387130112992E-002)
 COEFF OF STATE           2 = (-0.100403268615734,8.819712863972394E-002)
 
 POPULATION OF STATE           1 =  0.982140450151020     
 POPULATION OF STATE           2 =  1.785954984901532E-002
 SUM OF ALL POPULATIONS =   1.00000000000004     
 
 =========================================================
 
Scaling KE by    1.04790645895    
 
Generating $log data for last completed MD step:                                
t=   14360.0000000                                                              
 0.463546347822E-01 -0.163154170947      0.168212397145     ti                  
  1.52963427853      -2.41690250733       2.24869882311     o                   
 -2.52069120444     -0.550642687435      -2.65724489488     o                   
 -3.32035971563       1.01954929458      -2.06649172123     h                   
-0.996334710544       2.55015278236       2.16379714809     o                   
-0.445410694955       4.27685695109       1.93745391189     h                   
  1.95877917517      0.712523288570      -2.11204334784     o                   
 -1.15419028727      0.812461335194      -3.96150831701     h                   
  3.17129439216      -3.04015795976       1.76021181727     h                   
  40.0000000000       0.00000000000                                             
ti        0.187929561089E-03  0.132972367039E-03 -0.832096410061E-04            
o        -0.130620089810E-03 -0.220882839214E-03 -0.118233991906E-03            
o        -0.927385139453E-03  0.158765868660E-03  0.249484743442E-03            
h         0.428324511116E-02 -0.707870215065E-02 -0.412404296366E-02            
o        -0.195677883378E-03 -0.928044974546E-05 -0.283071615135E-03            
h         0.141257283194E-02 -0.187009542194E-03  0.828895065610E-03            
o         0.346333343460E-03  0.120385076504E-03  0.388682827392E-03            
h        -0.503541941656E-03 -0.606784448299E-04  0.317018692546E-02            
h         0.279341239265E-03  0.229800572245E-03  0.319503009798E-03            
 0.119031114042      -1152.03016232       0.00000000000                         
-0.391384333251E-01 -0.263618598553E-01 -0.152712106159E-01                     
-0.369820967679E-03  0.843909502999E-02  0.561462450071E-02                     
-0.210167994120E-01 -0.787907136309E-01  0.635172506351E-01                     
 0.212068716297E-01  0.124485293415E-01 -0.172531219772E-02                     
 0.381898400161E-04  0.894051358731E-02  0.186648287673E-01                     
 0.104605866790E-02  0.503714879700E-02 -0.696069596167E-03                     
 0.464653519312E-02 -0.260522364009E-02 -0.121575240907E-01                     
 0.332710272177E-01  0.715201171699E-01 -0.550347569155E-01                     
 0.316371160472E-03  0.137239320790E-02 -0.291183048727E-02                     
 

   Time t=   14360.0000000     a.u. (  347.339680000     fs)

   e x e c u t i n g    M D   s t e p   (leapfrog algorithm)

   Number of MD steps left:    1140
 
   Time t=   14400.0000000     a.u. (  348.307200000     fs)

 
Provisional $current data:                                                      
t=   14400.0000000                                                              
 0.545889967156E-01 -0.157352216940      0.165163843836     ti                  
  1.52442976334      -2.42620079012       2.24366144482     o                   
 -2.55663362724     -0.539969589784      -2.65075006502     o                   
 -3.16749659605      0.725561181205      -2.22995105898     h                   
 -1.00416392098       2.54929108730       2.15145032995     o                   
-0.389818676793       4.26499028174       1.97121584342     h                   
  1.97237759973      0.717481614343      -2.09582907230     o                   
 -1.20330396918      0.747755352662      -3.78677724567     h                   
  3.18219254959      -3.03216100012       1.77552752410     h                   
  40.0000000000       0.00000000000                                             
ti        0.210732354414E-03  0.148482595008E-03 -0.780180445747E-04            
o        -0.133193045098E-03 -0.237960031371E-03 -0.128915706524E-03            
o        -0.919832215470E-03  0.273144053543E-03  0.166214552924E-03            
h         0.391204629479E-02 -0.752369252194E-02 -0.418322286219E-02            
o        -0.200363787851E-03 -0.220523496671E-04 -0.315977616465E-03            
h         0.142270123281E-02 -0.303689732408E-03  0.864029463159E-03            
o         0.348008509612E-03  0.126892608384E-03  0.414952911608E-03            
h        -0.125690878143E-02 -0.165594421936E-02  0.447168710229E-02            
h         0.278903744087E-03  0.204656796376E-03  0.391956897810E-03            
 
    50 energy records for statistics read from mdlog.2                                                                         
       Total Energy (H):
              current value   -1151.91113120    
                    average   -1151.90456211    
         standard deviation   0.189626724796E-01
                      drift   0.914678666868E-04
        jump from last step  -0.467665328438E-02
 
     Kinetic Energy (H):
              current value   0.119031114042    
                    average   0.785654729522E-01
         standard deviation   0.381825985360E-01
                      drift   0.981486900284E-03
 avg. quasi-temperature (K)    2362.54807093    
      number of constraints       0
 
         Pressure (GPa):
              current value    0.00000000000    
                    average    0.00000000000    
 
 
   approx integration error   0.761669794930E-01
 
Estimated integration error by reading last steps from mdlog.2                  
 
Generating $log data for last completed MD step:                                
t=   14360.0000000                                                              
 0.463546347822E-01 -0.163154170947      0.168212397145     ti                  
  1.52963427853      -2.41690250733       2.24869882311     o                   
 -2.52069120444     -0.550642687435      -2.65724489488     o                   
 -3.32035971563       1.01954929458      -2.06649172123     h                   
-0.996334710544       2.55015278236       2.16379714809     o                   
-0.445410694955       4.27685695109       1.93745391189     h                   
  1.95877917517      0.712523288570      -2.11204334784     o                   
 -1.15419028727      0.812461335194      -3.96150831701     h                   
  3.17129439216      -3.04015795976       1.76021181727     h                   
  40.0000000000       0.00000000000                                             
ti        0.187929561089E-03  0.132972367039E-03 -0.832096410061E-04            
o        -0.130620089810E-03 -0.220882839214E-03 -0.118233991906E-03            
o        -0.927385139453E-03  0.158765868660E-03  0.249484743442E-03            
h         0.428324511116E-02 -0.707870215065E-02 -0.412404296366E-02            
o        -0.195677883378E-03 -0.928044974546E-05 -0.283071615135E-03            
h         0.141257283194E-02 -0.187009542194E-03  0.828895065610E-03            
o         0.346333343460E-03  0.120385076504E-03  0.388682827392E-03            
h        -0.503541941656E-03 -0.606784448299E-04  0.317018692546E-02            
h         0.279341239265E-03  0.229800572245E-03  0.319503009798E-03            
 0.119031114042      -1152.03016232       0.00000000000                         
-0.391384333251E-01 -0.263618598553E-01 -0.152712106159E-01                     
-0.369820967679E-03  0.843909502999E-02  0.561462450071E-02                     
-0.210167994120E-01 -0.787907136309E-01  0.635172506351E-01                     
 0.212068716297E-01  0.124485293415E-01 -0.172531219772E-02                     
 0.381898400161E-04  0.894051358731E-02  0.186648287673E-01                     
 0.104605866790E-02  0.503714879700E-02 -0.696069596167E-03                     
 0.464653519312E-02 -0.260522364009E-02 -0.121575240907E-01                     
 0.332710272177E-01  0.715201171699E-01 -0.550347569155E-01                     
 0.316371160472E-03  0.137239320790E-02 -0.291183048727E-02                     
 
Generated $current data for new MD step:                                        
t=   14400.0000000                                                              
 0.545889967156E-01 -0.157352216940      0.165163843836     ti                  
  1.52442976334      -2.42620079012       2.24366144482     o                   
 -2.55663362724     -0.539969589784      -2.65075006502     o                   
 -3.16749659605      0.725561181205      -2.22995105898     h                   
 -1.00416392098       2.54929108730       2.15145032995     o                   
-0.389818676793       4.26499028174       1.97121584342     h                   
  1.97237759973      0.717481614343      -2.09582907230     o                   
 -1.20330396918      0.747755352662      -3.78677724567     h                   
  3.18219254959      -3.03216100012       1.77552752410     h                   
  40.0000000000       0.00000000000                                             
ti        0.210732354414E-03  0.148482595008E-03 -0.780180445747E-04            
o        -0.133193045098E-03 -0.237960031371E-03 -0.128915706524E-03            
o        -0.919832215470E-03  0.273144053543E-03  0.166214552924E-03            
h         0.391204629479E-02 -0.752369252194E-02 -0.418322286219E-02            
o        -0.200363787851E-03 -0.220523496671E-04 -0.315977616465E-03            
h         0.142270123281E-02 -0.303689732408E-03  0.864029463159E-03            
o         0.348008509612E-03  0.126892608384E-03  0.414952911608E-03            
h        -0.125690878143E-02 -0.165594421936E-02  0.447168710229E-02            
h         0.278903744087E-03  0.204656796376E-03  0.391956897810E-03            
 
Logging MD run data ($log) to file mdlog.2                                                                         
Writing data for next step ($current) to mdlog.2                                                                         

    2018-03-07 22:52:12.894 

         total cpu-time :   0.57 seconds
         total wall-time :   0.57 seconds

          ******************************************************



    ------------------------------------------------------------------------
         total  cpu-time :   0.57 seconds
         total wall-time :   0.58 seconds
    ------------------------------------------------------------------------

   ****  frog : all done  ****


    2018-03-07 22:52:12.894 

 operating system is UNIX !
 hostname is c-8-251.local

 ridft (c-8-251.local) : TURBOMOLE V7.1 ( ) 5 Apr 2016 at 11:29:09
 Copyright (C) 2016 TURBOMOLE GmbH, Karlsruhe


    2018-03-07 22:52:13.051 



                                  r i d f t

                        DFT program with RI approximation 
                                for coulomb part 




                                                 
                                 References:     
                                                 
          TURBOMOLE:                             
              R. Ahlrichs, M. Baer, M. Haeser, H. Horn, and
              C. Koelmel
              Electronic structure calculations on workstation
              computers: the program system TURBOMOLE
              Chem. Phys. Lett. 162: 165 (1989)
          Density Functional:                              
              O. Treutler and R. Ahlrichs                      
              Efficient Molecular Numerical Integration Schemes
              J. Chem. Phys. 102: 346 (1995)                   
          Parallel Version:                                
              Performance of parallel TURBOMOLE for Density    
              Functional Calculations                          
              M. v. Arnim and R. Ahlrichs                      
              J. Comp. Chem. 19: 1746 (1998)                   
          RI-J Method:                                     
              Auxiliary Basis Sets to approximate Coulomb      
              Potentials                                       
              Chem. Phys. Lett. 240: 283 (1995)                
              K. Eichkorn, O. Treutler, H. Oehm, M. Haeser     
              and R. Ahlrichs                                  
              Chem. Phys. Lett. 242: 652 (1995)                
                                                           
              Auxiliary Basis Sets for Main Row Atoms and their
              Use to approximate Coulomb Potentials            
              K. Eichkorn, F. Weigend, O. Treutler and         
              R. Ahlrichs                                      
              Theo. Chem. Acc. 97: 119 (1997)                   
                                                           
              Accurate Coulomb-fitting basis sets for H to Rn 
              F. Weigend                                        
              Phys. Chem. Chem. Phys. 8: 1057 (2006)            
                                                           
          Multipole accelerated RI-J (MARI-J):             
              Fast evaluation of the Coulomb potential for     
              electron densities using multipole accelerated   
              resolution of identity approximation             
              M. Sierka, A. Hogekamp and R. Ahlrichs           
              J. Chem. Phys. 118: 9136 (2003)                  
          RI-JK Method:                                     
              A fully direct RI-HF algorithm: Implementation,
              optimised auxiliary basis sets, demonstration of
              accuracy and efficiency                         
              F. Weigend                                      
              Phys. Chem. Chem. Phys. 4: 4285 (2002)           
          Two-component HF and DFT with spin-orbit coupling:  
              Self-consistent treatment of spin-orbit         
              interactions with efficient Hartree-Fock and    
              density functional methods                      
              M. K. Armbruster, F. Weigend, C. van Wüllen and 
              W. Klopper                                      
              Phys. Chem. Chem. Phys. 10: 1748 (2008)         
          Relativistic all-electron 2c calculations           
              An efficient implementation of two-component    
              relativistic exact-decoupling methods for large 
              molecules                                       
              D. Peng, N. Middendorf, F. Weigend, M. Reiher   
              J. Chem. Phys. 138, 184105 (2013)               
                                         


 


              +--------------------------------------------------+
              |      general information about current run       |
              +--------------------------------------------------+

 

 DENSITY CONVERGENCE CHECK SWITCHED ON !
 SCF CONVERGENCE IF RMS(delta[D]) <     0.1000000000E-06

 PBE0 hybrid functional
 exchange:    3/4 (LDA+PBE) + 1/4 HF
 correlation: LDA (PW) + PBE
 A Hybrid-DFT calculation using the RI-J approximation will be carried out.
 Allocatable memory for RI due to $ricore (MB):         500


              +--------------------------------------------------+
              | Atomic coordinate, charge and isotop information |
              +--------------------------------------------------+

                    atomic coordinates            atom    charge  isotop
          0.05458900   -0.15735222    0.16516384    ti    22.000     0
          1.52442976   -2.42620079    2.24366144    o      8.000     0
         -2.55663363   -0.53996959   -2.65075007    o      8.000     0
         -3.16749660    0.72556118   -2.22995106    h      1.000     0
         -1.00416392    2.54929109    2.15145033    o      8.000     0
         -0.38981868    4.26499028    1.97121584    h      1.000     0
          1.97237760    0.71748161   -2.09582907    o      8.000     0
         -1.20330397    0.74775535   -3.78677725    h      1.000     0
          3.18219255   -3.03216100    1.77552752    h      1.000     0
 
       center of nuclear mass  :    0.00000001   -0.00000001    0.00000004
       center of nuclear charge:   -0.01533431    0.02843475   -0.02496757

              +--------------------------------------------------+
              |               basis set information              |
              +--------------------------------------------------+

              we will work with the 1s 3p 5d 7f 9g ... basis set
              ...i.e. with spherical basis functions...

   type   atoms  prim   cont   basis
   ---------------------------------------------------------------------------
    ti       1     73     31   def2-SVP   [5s3p2d1f|14s9p5d1f]
    o        4     24     14   def2-SVP   [3s2p1d|7s4p1d]
    h        4      7      5   def2-SVP   [2s1p|4s1p]
   ---------------------------------------------------------------------------
   total:    9    197    107
   ---------------------------------------------------------------------------

   total number of primitive shells          :   46
   total number of contracted shells         :   47
   total number of cartesian basis functions :  116
   total number of SCF-basis functions       :  107


 integral neglect threshold       :  0.29E-10
 integral storage threshold THIZE :  0.10E-04
 integral storage threshold THIME :         5

 RI-J AUXILIARY BASIS SET information:

              we will work with the 1s 3p 5d 7f 9g ... basis set
              ...i.e. with spherical basis functions...

   type   atoms  prim   cont   basis
   ---------------------------------------------------------------------------
    ti       1    107     89   def2-SVP   [8s5p5d2f3g|19s5p5d3f3g]
    o        4     70     49   def2-SVP   [6s4p3d1f1g|12s5p4d2f1g]
    h        4     16     11   def2-SVP   [3s1p1d|5s2p1d]
   ---------------------------------------------------------------------------
   total:    9    451    329
   ---------------------------------------------------------------------------

   total number of primitive shells          :   67
   total number of contracted shells         :  103
   total number of cartesian basis functions :  410
   total number of SCF-basis functions       :  329


 symmetry group of the molecule :   c1 

 the group has the following generators :
   c1(z)

    1 symmetry operations found

 there are 1 real representations :   a   

 maximum number of shells which are related by symmetry :  1


    mo occupation :
   irrep   mo's   occupied
    a      107       29
 
 number of basis functions   :          107
 number of occupied orbitals :           29
 
  
           ------------------
           density functional
           ------------------
 PBE0 hybrid functional
 exchange:    3/4 (LDA+PBE) + 1/4 HF
 correlation: LDA (PW) + PBE
 iterations will be done with small grid
  
 spherical integration : Lebedev's spherical grid
 spherical gridsize    :           3
    i.e. gridpoints    :         302
 value for diffuse not defined
 radial integration    : Chebyshev 2nd kind (scaling 3)
 radial gridsize       :           3
 integration cells     :           9
 partition function    : becke
 partition sharpness   :           3
  

 biggest AO integral is expected to be    13.493451081
  
           ------------------------
               RI-J - INFORMATION
           ------------------------
 Contributions to RI integral batches: 
  neglected integral batches:          58
  direct contribution:                  0
  memory contribution:        1070
 Memory core needed for (P|Q) and Cholesky      1 MByte
 Memory core minimum needed except of (P|Q)     1 MByte
 Total minimum memory core needed (sum)         1 MByte
  
 ****************************************
 Memory allocated for RI-J    22 MByte
 ****************************************
                                            

          ------------------------
          nuclear repulsion energy  :   328.106807535    
          ------------------------

 
          -----------------
          -S,T+V- integrals
          -----------------

 1e-integrals will be neglected if expon. factor < 0.288100E-11
 
   Difference densities algorithm switched on.
   The maximal number of linear combinations of
   difference densities is          20 .

 DIIS switched on: error vector is FDS-SDF
 Max. Iterations for DIIS is     :   4
 DIIS matrix (see manual) 
    Scaling factor of diagonals  :  1.200
    threshold for scaling factor :  0.000

 scf convergence criterion : increment of total energy < .1000000D-06
                  and increment of one-electron energy < .1000000D-03

  MOs are in ASCII format !


 automatic virtual orbital shift switched on 
      shift if e(lumo)-e(homo) < 0.10000000    


 reading orbital data $scfmo  from file mos
 orbital characterization : scfconv=7

 DSCF restart information will be dumped onto file mos


 Starting SCF iterations

          Overall gridpoints after grid construction =         13464

 ITERATION  ENERGY          1e-ENERGY        2e-ENERGY     RMS[dD(SAO)]   TOL
   1  -1151.9649293208    -2234.4800064     754.40826959    0.000D+00 0.287D-10
                            Exc = -58.6275993206     Coul =  831.854674648    
                            exK = -18.8188057394    
                              N = 57.997708947    
                            current damping = 0.700
 
          max. resid. norm for Fia-block=  8.772D-02 for orbital     14a         
          max. resid. fock norm         =  2.691D-01 for orbital     85a         

 ITERATION  ENERGY          1e-ENERGY        2e-ENERGY     RMS[dD(SAO)]   TOL
   2  -1151.9797973101    -2234.9203628     754.83375796    0.232D-02 0.182D-10
                            Exc = -58.6658143525      Eck =  813.499572317    
                              N = 57.997768521    
                            current damping = 0.650
 
          Norm of current diis error: 0.12134    
          max. resid. norm for Fia-block=  3.447D-02 for orbital     14a         
          max. resid. fock norm         =  1.139D-01 for orbital     87a         

 ITERATION  ENERGY          1e-ENERGY        2e-ENERGY     RMS[dD(SAO)]   TOL
   3  -1151.9817146002    -2234.7361383     754.64761617    0.106D-02 0.145D-10
                            Exc = -58.6578964255      Eck =  813.305512599    
                              N = 57.997760693    
                            current damping = 0.600
 
          Norm of current diis error: 0.70213E-01
          max. resid. norm for Fia-block=  1.277D-02 for orbital     14a         
          max. resid. fock norm         =  4.355D-02 for orbital     87a         

 ITERATION  ENERGY          1e-ENERGY        2e-ENERGY     RMS[dD(SAO)]   TOL
   4  -1151.9822276471    -2235.0052833     754.91624807    0.498D-03 0.133D-10
                            Exc = -58.6605750319      Eck =  813.576823101    
                              N = 57.997766276    
                            current damping = 0.650
 
          Norm of current diis error: 0.38646E-01
          max. resid. norm for Fia-block=  4.997D-03 for orbital     14a         
          max. resid. fock norm         =  1.882D-02 for orbital     87a         

 ITERATION  ENERGY          1e-ENERGY        2e-ENERGY     RMS[dD(SAO)]   TOL
   5  -1151.9823530898    -2234.7956676     754.70650699    0.287D-03 0.130D-10
                            Exc = -58.6655661793      Eck =  813.372073170    
                              N = 57.997769046    
                            current damping = 0.700
 
          Norm of current diis error: 0.25939E-01
          max. resid. norm for Fia-block=  2.159D-03 for orbital     14a         
          max. resid. fock norm         =  7.255D-03 for orbital     88a         
          mo-orthogonalization: Cholesky decomposition

 ITERATION  ENERGY          1e-ENERGY        2e-ENERGY     RMS[dD(SAO)]   TOL
   6  -1151.9824408827    -2234.8747529     754.78550450    0.111D-03 0.125D-10
                            Exc = -58.6645539495      Eck =  813.450058446    
                              N = 57.997768017    
                            current damping = 0.750
 
          Norm of current diis error: 0.57414E-02
          max. resid. norm for Fia-block=  9.024D-04 for orbital     14a         
          max. resid. fock norm         =  3.192D-03 for orbital     88a         

 ITERATION  ENERGY          1e-ENERGY        2e-ENERGY     RMS[dD(SAO)]   TOL
   7  -1151.9824457976    -2234.8872603     754.79800696    0.357D-04 0.120D-10
                            Exc = -58.6637037785      Eck =  813.461710735    
                              N = 57.997768308    
                            current damping = 0.600
 
          Norm of current diis error: 0.20898E-02
          max. resid. norm for Fia-block=  4.239D-04 for orbital     18a         
          max. resid. fock norm         =  1.196D-03 for orbital     88a         

 ITERATION  ENERGY          1e-ENERGY        2e-ENERGY     RMS[dD(SAO)]   TOL
   8  -1151.9824464356    -2234.8924033     754.80314932    0.186D-04 0.117D-10
                            Exc = -58.6640675124      Eck =  813.467216829    
                              N = 57.997768004    
                            current damping = 0.450
 
          Norm of current diis error: 0.12656E-02
          max. resid. norm for Fia-block=  1.567D-04 for orbital     14a         
          max. resid. fock norm         =  5.816D-04 for orbital     88a         

 ITERATION  ENERGY          1e-ENERGY        2e-ENERGY     RMS[dD(SAO)]   TOL
   9  -1151.9824466608    -2234.8894568     754.80020263    0.950D-05 0.114D-10
                            Exc = -58.6639772026      Eck =  813.464179830    
                              N = 57.997768181    
                            current damping = 0.500
 
          Norm of current diis error: 0.57439E-03
          max. resid. norm for Fia-block=  6.393D-05 for orbital     18a         
          max. resid. fock norm         =  1.459D-04 for orbital     88a         

 ITERATION  ENERGY          1e-ENERGY        2e-ENERGY     RMS[dD(SAO)]   TOL
  10  -1151.9824467130    -2234.8913167     754.80206244    0.360D-05 0.110D-10
                            Exc = -58.6639305719      Eck =  813.465993011    
                              N = 57.997768183    
                            current damping = 0.550
 
          Norm of current diis error: 0.14019E-03
          max. resid. norm for Fia-block=  2.237D-05 for orbital     18a         
          max. resid. fock norm         =  5.737D-05 for orbital     88a         
          mo-orthogonalization: Cholesky decomposition

 ITERATION  ENERGY          1e-ENERGY        2e-ENERGY     RMS[dD(SAO)]   TOL
  11  -1151.9824467166    -2234.8909513     754.80169701    0.130D-05 0.108D-10
                            Exc = -58.6639388380      Eck =  813.465635847    
                              N = 57.997768152    
                            current damping = 0.600
 
          Norm of current diis error: 0.67441E-04
          max. resid. norm for Fia-block=  1.162D-05 for orbital     18a         
          max. resid. fock norm         =  1.469D-05 for orbital     88a         

 ENERGY & DENSITY CONVERGED !

          Overall gridpoints after grid construction =         48470

 ITERATION  ENERGY          1e-ENERGY        2e-ENERGY     RMS[dD(SAO)]   TOL
  12  -1151.9825530653    -2234.8910463     754.80168568    0.508D-06 0.106D-10
                            Exc = -58.6640525860      Eck =  813.465738266    
                              N = 58.000046440    
                            current damping = 0.650
 
          Norm of current diis error: 0.31716E-04
          max. resid. norm for Fia-block=  4.260D-06 for orbital     18a         
          max. resid. fock norm         =  8.647D-06 for orbital     88a         

 End of SCF iterations

   convergence criteria satisfied after   12 iterations


                  ------------------------------------------ 
                 |  total energy      =  -1151.98255306525  |
                  ------------------------------------------ 
                 :  kinetic energy    =   1149.20534973592  :
                 :  potential energy  =  -2301.18790280118  :
                 :  virial theorem    =      1.99758919671  :
                 :  wavefunction norm =      1.00000000000  :
                  .......................................... 


 orbitals $scfmo  will be written to file mos

    irrep                 25a         26a         27a         28a         29a   
 eigenvalues H         -0.33486    -0.31912    -0.31656    -0.31228    -0.30562
            eV          -9.1121     -8.6838     -8.6141     -8.4977     -8.3164
 occupation              2.0000      2.0000      2.0000      2.0000      2.0000 

    irrep                 30a         31a         32a         33a         34a   
 eigenvalues H         -0.04769    -0.02984     0.00218     0.00601     0.03305
            eV          -1.2978     -0.8121      0.0592      0.1634      0.8992
 
 
 
 
 ==============================================================================
                           electrostatic moments
 ==============================================================================

 reference point for electrostatic moments:    0.00000   0.00000   0.00000

 
              nuc           elec       ->  total
 ------------------------------------------------------------------------------
                          charge      
 ------------------------------------------------------------------------------
          58.000000     -58.000000       0.000000
 
 ------------------------------------------------------------------------------
                       dipole moment  
 ------------------------------------------------------------------------------
   x      -0.889390       0.149981      -0.739409
   y       1.649216      -1.315594       0.333621
   z      -1.448119       0.624683      -0.823436
 
   | dipole moment | =     1.1559 a.u. =     2.9380 debye 
 
 ------------------------------------------------------------------------------
                     quadrupole moment
 ------------------------------------------------------------------------------
  xx     131.895884    -159.584350     -27.688466
  yy     134.547892    -160.517779     -25.969887
  zz     195.604538    -227.234735     -31.630196
  xy     -42.401094      39.895742      -2.505352
  xz      47.925022     -44.081796       3.843227
  yz      -2.248129       1.660605      -0.587524
 
     1/3  trace=     -28.429516
     anisotropy=       9.457379
 
 ==============================================================================
 


    ------------------------------------------------------------------------
         total  cpu-time :  11.12 seconds
         total wall-time :  11.14 seconds
    ------------------------------------------------------------------------

   ****  ridft : all done  ****


    2018-03-07 22:52:24.105 

fine, there is no data group "$actual step"
next step = rdgrad
 hostname is c-8-251.local
           Doing BLAS/Lapack in the master proc. with  8 CPUs.
           SMPCPUS    set: Shared-memory Parallelization with   8 CPUs.

           SMP Parallelization Reference:
           C. van Wullen, J. Comput. Chem. 32 (2011) 1195--1201

 egrad (c-8-251.local) : TURBOMOLE V7.1 ( ) 5 Apr 2016 at 11:29:09
 Copyright (C) 2016 TURBOMOLE GmbH, Karlsruhe


    2018-03-07 22:52:24.379 




                               e g r a d

                       quantum chemistry group
                       university of karlsruhe
                               germany


             integral direct evaluation of excited state
                     and polarizability gradients
                 and first-order nonadiabatic couplings



          references (see also programs escf, dscf and ridft) 

          review 
          F. Furche and D. Rappoport,  
          "Density functional methods for excited states: 
          equilibrium structure and electronic spectra",
          ch. III of "Computational Photochemistry", ed. by 
          M. Olivucci, vol. 16 of "Theoretical and Computational 
          Chemistry", Elsevier, Amsterdam, 2005.

          RI-J method 
          D. Rappoport and F. Furche, 
          J. Chem. Phys. 122 (2005), 064105.

          Lagrangian method, implementation, benchmarks 
          F. Furche and R. Ahlrichs,
          J. Chem. Phys. 117 (2002), 7433;
          J. Chem. Phys. 121 (2004), 12772 (E).

          Polarizability derivatives, Raman intensities 
          D. Rappoport and F. Furche, 
          J. Chem. Phys. 126 (2007), 201104.

          First-order nonadiabatic couplings 
          R. Send and F. Furche, 
          J. Chem. Phys. 132 (2010), 044107.
                                     




              +--------------------------------------------------+
              | Atomic coordinate, charge and isotop information |
              +--------------------------------------------------+

                    atomic coordinates            atom    charge  isotop
          0.05458900   -0.15735222    0.16516384    ti    22.000     0
          1.52442976   -2.42620079    2.24366144    o      8.000     0
         -2.55663363   -0.53996959   -2.65075007    o      8.000     0
         -3.16749660    0.72556118   -2.22995106    h      1.000     0
         -1.00416392    2.54929109    2.15145033    o      8.000     0
         -0.38981868    4.26499028    1.97121584    h      1.000     0
          1.97237760    0.71748161   -2.09582907    o      8.000     0
         -1.20330397    0.74775535   -3.78677725    h      1.000     0
          3.18219255   -3.03216100    1.77552752    h      1.000     0
 
       center of nuclear mass  :    0.00000001   -0.00000001    0.00000004
       center of nuclear charge:   -0.01533431    0.02843475   -0.02496757

              +--------------------------------------------------+
              |               basis set information              |
              +--------------------------------------------------+

              we will work with the 1s 3p 5d 7f 9g ... basis set
              ...i.e. with spherical basis functions...

   type   atoms  prim   cont   basis
   ---------------------------------------------------------------------------
    ti       1     73     31   def2-SVP   [5s3p2d1f|14s9p5d1f]
    o        4     24     14   def2-SVP   [3s2p1d|7s4p1d]
    h        4      7      5   def2-SVP   [2s1p|4s1p]
   ---------------------------------------------------------------------------
   total:    9    197    107
   ---------------------------------------------------------------------------

   total number of primitive shells          :   46
   total number of contracted shells         :   47
   total number of cartesian basis functions :  116
   total number of SCF-basis functions       :  107


 residuum convergence criterium   :  0.10E-04


 integral neglect threshold       :  0.29E-10
 integral storage threshold THIZE :  0.10E-04
 integral storage threshold THIME :         5

 
             FOUND RI-J FLAG !
 
  
 AUXILIARY BASIS SET information:

              we will work with the 1s 3p 5d 7f 9g ... basis set
              ...i.e. with spherical basis functions...

   type   atoms  prim   cont   basis
   ---------------------------------------------------------------------------
    ti       1    107     89   def2-SVP   [8s5p5d2f3g|19s5p5d3f3g]
    o        4     70     49   def2-SVP   [6s4p3d1f1g|12s5p4d2f1g]
    h        4     16     11   def2-SVP   [3s1p1d|5s2p1d]
   ---------------------------------------------------------------------------
   total:    9    451    329
   ---------------------------------------------------------------------------

   total number of primitive shells          :   67
   total number of contracted shells         :  103
   total number of cartesian basis functions :  410
   total number of SCF-basis functions       :  329

 RPA SINGLET-EXCITATION-CALCULATION 
 
             FOUND DFT-FLAG !
 
 
 FOUND Nonadiabatic Coupling-FLAG !
 Note: the sign convention for NACME changed
 such that <0|d/dx|n> is now computed.

 symmetry group of the molecule :   c1 

 the group has the following generators :
   c1(z)

    1 symmetry operations found

 there are 1 real representations :   a   

 maximum number of shells which are related by symmetry :  1

 IRREP of excited state :   a   
 

 determining totally symmetric integral contributions 
    - equivalent to irreducible tensor elements - 
 which can be formed within each triple of representations :

             representation triple      contributions

              a     a     a               1

    mo occupation :
   irrep   mo's   occupied
    a      107       29
 
 number of basis functions   :          107
 number of occupied orbitals :           29
 
  
           ------------------
           density functional
           ------------------
 PBE0 hybrid functional
 exchange:    3/4 (LDA+PBE) + 1/4 HF
 correlation: LDA (PW) + PBE
 iterations will be done with small grid
  
 spherical integration : Lebedev's spherical grid
 spherical gridsize    :           3
    i.e. gridpoints    :         302
 value for diffuse not defined
 radial integration    : Chebyshev 2nd kind (scaling 3)
 radial gridsize       :           3
 integration cells     :           9
 partition function    : becke
 partition sharpness   :           3
  
 
 Derivatives of quadrature weights will be included
 
  
           ----------------------
               RI - INFORMATION
           ----------------------

 biggest AO integral is expected to be    13.493451081

 Threshold for integral neglect (rithr2):   0.29E-10
 Threshold for integral neglect (rithr1):   0.29E-10

 Contributions to RI integral batches: 
  neglected integral batches:          51
  direct contribution:                  0
  memory contribution:        1077
 Core memory available (ricore)            500 MiB
 Core memory needed for (P|Q) and Cholesky 1 MiB
 Core memory used for integrals            21 MiB
  
 ****************************************
 Memory allocated for RIDFT 22 MiB
 ****************************************
                                            
  MOs are in ASCII format !


 reading orbital data $scfmo  from file mos
 orbital characterization : scfconv=7
 preparing numerical integration ....
          Overall gridpoints after grid construction =         13464
 Ordering of quadrature gridpoints disabled.

 Calculating ground state density on molecular grid

 Integral of ground state density: N =   57.99776816533532    



 number of non-frozen orbitals          :   107
 number of non-frozen occupied orbitals :    29



                        -------------------
                         excitation vector 
                        -------------------


 dimension of super-tensorspace: 2

          IRREP   tensor space dimension   number of roots

           a              2262                   1

 maximum number of Davidson iterations set to   25


 machine precision: 2.22D-16


 logfile sing_a    exists already

 found      1 converged vectors on sing_a   
 read       1 vectors from logfile sing_a   



                       Nonorthonormal Krylov Space Iteration


 total number of roots to be determined:   1


 maximum core memory set to   500 MB,
 corresponding to     2317 vectors in CAO basis


 maximum number of simultaneously treated vectors (including degeneracy):        1


 Iteration IRREP Converged      Max. Euclidean
                 roots          residual norm

    1       a        0        1.290635005602572D-01
 
    2       a        0        7.160965648623395D-02
 
    3       a        0        5.703218100024976D-02
 
    4       a        0        3.618392872234953D-02
 
    5       a        0        2.244510669826929D-02
 
    6       a        0        1.566867585696440D-02
 
    7       a        0        1.267108082069968D-02
 
    8       a        0        1.399992289010003D-02
 
    9       a        0        1.024001725220042D-02
 
   10       a        0        5.540961803693017D-03
 
   11       a        0        3.985339180350183D-03
 
   12       a        0        1.444025404044435D-03
 
   13       a        0        5.350350134121141D-04
 
   14       a        0        5.743395692995377D-04
 
   15       a        0        6.373583594922044D-04
 
   16       a        0        7.676553470576716D-04
 
   17       a        0        7.478969622217123D-04
 
   18       a        0        1.423631003934025D-03
 
   19       a        0        1.549113011611510D-02
 
   20       a        0        8.802219110475035D-03
 
   21       a        0        5.761927997061361D-03
 
   22       a        0        3.506647318041495D-03
 
   23       a        0        3.087395161744292D-03
 
   24       a        0        1.348554078705169D-03
 
   25       a        0        6.405273287805965D-04
 


 Warning! No convergence within  25 iterations.
 Unless you have specified a very low $escfiterlimit/$forceiterlimit, 
 this is a reason to worry!



 IRREP   Vector     Eigenvalue           Euclidean residual norm

  a         1    1.997979834038057D-01    6.405273287805965D-04
 

 Deallocation failure for file unit arrays in <egrad>


========================
 internal module stack: 
------------------------
    egrad
========================

  abnormal termination
 egrad ended abnormally
error in gradient step (1)
