job series identifier 142811
 define ended normally 
***definp.py done***

 mdprep (gplogin1.local) : TURBOMOLE V7.2 ( 21454 ) 2 Oct 2017 at 16:43:05
 Copyright (C) 2017 TURBOMOLE GmbH, Karlsruhe


    2018-03-07 14:28:12.711 


 mdprep (gplogin1.local) : TURBOMOLE V7.2 ( 21454 ) 2 Oct 2017 at 16:43:05
 Copyright (C) 2017 TURBOMOLE GmbH, Karlsruhe


    2018-03-07 14:28:12.711 

 
       `--._            A b     I n i t i o           .-
            `.  M o l e c u l a r   D y n a m i c s  /
              \               .-.       .           / 
               \             /   \     / `.        /  
                `-----._    /     `._.'    `--.__.'   
                        `--'                          
 
 
No default master file present: mdmaster                                        

Reading from control                                                                         

...................................

     NUMBER OF ATOMS                         
. . . . . . . . . . . . . . . . . .

Reading from control                                                                         
Current status of NUMBER OF ATOMS                         
     9   atoms                                                                  

Enter option:
     d  Default: count atoms in TURBOMOLE $coord in control                   
     i  Interactively enter number of atoms                                   
     h         Help
     q or '*'  Terminates this menu ('qq' to abort <mdprep>)


...................................

     INITIAL POSITION                        
. . . . . . . . . . . . . . . . . .

Reading from control                                                                         
Checking for non-default isotopic masses in control                                                                         
 
Current status of INITIAL POSITION                        
atomic coordinates from $coord in control                                       

Enter option:
     d  Default: use TURBOMOLE $coord                                         
     h         Help
     q or '*'  Terminates this menu ('qq' to abort <mdprep>)


...................................

     Cavity Barrier Attributes:              
. . . . . . . . . . . . . . . . . .

Current Cavity Barrier Attributes:              


Enter option:
     d  Reset to (d)efaults                                                   
     a  Toggle (A)ngstromicity                                                
     t  (T)ype of cavity                                                      
     l  Barrier size (l)imits                                                 
     c  Barrier spring (c)onstant                                             
     s  Barrier (s)pring length limit                                         
     k  Temperature in (K)elvin                                               
     h         Help
     &         Back to previous menu and reset
     q or '*'  Terminates this menu ('qq' to abort <mdprep>)


...................................

     Distance Constraints:                   
. . . . . . . . . . . . . . . . . .

Current Distance Constraints:                   

$constraints                                                                    
  algorithm   none                                                              
  tolerance  0.1000000E-01                                                      
  corpercyc  0.2500000                                                          

Enter option:
     d  Reset to (d)efaults                                                   
     a  Toggle (A)ngstromicity                                                
     g  Constraint al(g)orithm                                                
     t  (T)olerance for convergence                                           
     c  (C)orrection fraction per cycle of constraint algorithm               
     b  Constrain (b)ond type                                                 
     e  Enter constraint (e)xplicitly                                         
     r  (R)emove numbered constraint                                          
     v  Con(v)ert to all explicit for current geometry                        
     h         Help
     &         Back to previous menu and reset
     q or '*'  Terminates this menu ('qq' to abort <mdprep>)


...................................

     INITIAL VELOCITY                        
. . . . . . . . . . . . . . . . . .

Assigning random velocity, with KE about  0.166272750000E-01
     representing a temperature of about   500.000000000    

Current status of INITIAL VELOCITY                        
random velocity at temperature of   500.000000000     K                         

Enter option:
     d  Default: random velocity at temperature of   500.000000000     K      
     i  Interactively enter temperature for random velocity                   
     z  Zero velocity                                                         
     r  generate non-reproducible random velocity                             
     h         Help
     &         Back to previous menu and reset
     q or '*'  Terminates this menu ('qq' to abort <mdprep>)


Enter temperature (K): 

Assigning random velocity, with KE about  0.133018200000E-01
     representing a temperature of about   400.000000000    

Current status of INITIAL VELOCITY                        
random velocity at temperature of   400.000000000     K                         

Enter option:
     d  Default: random velocity at temperature of   500.000000000     K      
     i  Interactively enter temperature for random velocity                   
     z  Zero velocity                                                         
     r  generate non-reproducible random velocity                             
     h         Help
     &         Back to previous menu and reset
     q or '*'  Terminates this menu ('qq' to abort <mdprep>)


...................................

     TIME-STEP                               
. . . . . . . . . . . . . . . . . .

Enter option:
     d  Default timestep:   80.0000000000     a.u. (  1.93504000000     fs)   
     i  Interactively enter timestep                                          
     h         Help
     &         Back to previous menu and reset
     q or '*'  Terminates this menu ('qq' to abort <mdprep>)


Enter timestep (a.u.): 

Enter option:
     d  Default timestep:   80.0000000000     a.u. (  1.93504000000     fs)   
     i  Interactively enter timestep                                          
     h         Help
     &         Back to previous menu and reset
     q or '*'  Terminates this menu ('qq' to abort <mdprep>)


...................................

     NAME OF LOG FILE                        
. . . . . . . . . . . . . . . . . .

Default log file= mdlog.1                                                                         

Current status of log file
log file= mdlog.1                                                               
maxlog 256

Enter option:
     d  Default filename                                                      
     i  Interactively enter file name                                         
     s  Set number of steps before starting new logfile                       
     h         Help
     &         Back to previous menu and reset
     q or '*'  Terminates this menu ('qq' to abort <mdprep>)


...................................

     STARTING TIME                           
. . . . . . . . . . . . . . . . . .

Current status of STARTING TIME                           
simulation starting at t=   0.00000000000     a.u. (  0.00000000000     fs)     

Enter option:
     d  Default: t=   0.00000000000     a.u. (  0.00000000000     fs)         
     i  Interactively enter starting time                                     
     h         Help
     &         Back to previous menu and reset
     q or '*'  Terminates this menu ('qq' to abort <mdprep>)


...................................

     NUMBER OF MD STEPS                      
. . . . . . . . . . . . . . . . . .

Current status of NUMBER OF MD STEPS                      
   256   MD steps                                                               

Enter option:
     d  Default:    256   steps                                               
     i  Interactively enter number of steps                                   
     h         Help
     &         Back to previous menu and reset
     q or '*'  Terminates this menu ('qq' to abort <mdprep>)


Enter number of MD steps: 

Current status of NUMBER OF MD STEPS                      
  1500   MD steps                                                               

Enter option:
     d  Default:    256   steps                                               
     i  Interactively enter number of steps                                   
     h         Help
     &         Back to previous menu and reset
     q or '*'  Terminates this menu ('qq' to abort <mdprep>)

...................................

Title of project:                                                                                 
   AIMD simulation
   starting at t=   0.000000000     a.u. (  0.000000000     fs),
   doing   1500 steps of   40.00000000     a.u. ( 0.9675200000     fs),
   finishing at t=   60000.00000     a.u. (  1451.280000     fs)
   and logging to file mdlog.1                                                                         

...................................

     DYNAMICS TYPE                           
. . . . . . . . . . . . . . . . . .

Current status of DYNAMICS TYPE                           
free                                                                            

Enter option:
     f  Free dynamics + user-defined actions (default)                        
     c  Canonical (Nose-Hoover) dynamics using thermostat                     
     h         Help
     &         Back to previous menu and reset
     q or '*'  Terminates this menu ('qq' to abort <mdprep>)


...................................

     USER-DEFINED ACTIONS                    
. . . . . . . . . . . . . . . . . .

Enter option:
     d  Default: free dynamics                                                
     f  Fix temperature or total energy and keep it fixed                     
     a  Simulated Annealing                                                   
     s  Set a dynamical variable 'once off' to some value                     
     o  Order current list of actions by time                                 
     c  Cut and delete last action from current list                          
     h         Help
     &         Back to previous menu and reset
     q or '*'  Terminates this menu ('qq' to abort <mdprep>)


User specified starting coordinates:                                            
t=   0.00000000000                                                              
-0.877721096941E-02  0.133444900600E-01 -0.844932458810E-01 ti                  
 0.613110494431      -2.49654894155       2.08561476588     o                   
 -2.61105803041      -1.09056416382      -1.95223657261     o                   
 -4.58650006199      -1.05074177605      -2.37990521806     h                   
-0.636865863702       2.73843955574       2.09411362019     o                   
 -1.51675239782       2.33549646496       3.60078508498     h                   
  2.68196225567      0.902578176548      -1.95417807724     o                   
  2.97352167565      0.939291397913      -3.96943531562     h                   
  2.58349561887      -2.92666497132       2.09601317289     h                   
  40.0000000000       0.00000000000                                             
ti       -0.133468207689E-03  0.170112250928E-03 -0.146143468035E-03            
o        -0.102003936340E-03  0.122338478483E-03 -0.640396935634E-04            
o         0.227837248531E-03 -0.802350962611E-04 -0.191865644647E-03            
h         0.111690723979E-02  0.817595452647E-03  0.458619983846E-04            
o        -0.190594611941E-03 -0.111352014625E-03 -0.142557196879E-03            
h         0.446099049866E-03  0.967043002226E-03  0.531239878313E-03            
o         0.579266464832E-04 -0.128165218050E-03 -0.108357729411E-03            
h         0.566766821689E-03  0.111168112715E-02  0.492379589286E-03            
h         0.881839796911E-03 -0.333381534399E-03  0.128249914927E-02            

Total linear and angular momentum set to zero

Zero-momentum starting coordinates:                                             
t=   0.00000000000                                                              
-0.690828463167E-02  0.650046725662E-02 -0.816284549388E-01 ti                  
 0.614979420768      -2.50339296436       2.08847955682     o                   
 -2.60918910407      -1.09740818663      -1.94937178167     o                   
 -4.58463113565      -1.05758579886      -2.37704042711     h                   
-0.634996937364       2.73159553294       2.09697841113     o                   
 -1.51488347148       2.32865244216       3.60364987592     h                   
  2.68383118201      0.895734153745      -1.95131328629     o                   
  2.97539060198      0.932447375109      -3.96657052468     h                   
  2.58536454521      -2.93350899412       2.09887796384     h                   
  40.0000000000       0.00000000000                                             
ti       -0.123278822897E-03  0.121656634904E-03 -0.411232408203E-04            
o        -0.331151962894E-06  0.233570244583E-04 -0.220834559396E-04            
o         0.172983056193E-03 -0.100589119060E-03  0.328495313634E-04            
h         0.116999729807E-02  0.962979441114E-03  0.415850840209E-03            
o        -0.316049523930E-04 -0.228245996356E-03  0.419978144740E-04            
h         0.777181124645E-03  0.996535425914E-03  0.857446266034E-03            
o         0.452195675955E-05 -0.226244258751E-03 -0.132588820993E-03            
h         0.477130143917E-03  0.122524258078E-02  0.541177771531E-03            
h         0.112345616897E-02 -0.526061504443E-03  0.140680575345E-02            

 New kinetic energy calc. from velocities:   1.330182000000000E-002
 
Making new file mdlog.1                                                                         
Initializing $log_history: zero records in mdlog.1                                                                         
Writing data for next step ($current) to mdlog.1                                                                         
Making new file mdmaster                                                                        


    2018-03-07 14:28:13.445 

         total cpu-time :   0.06 seconds
         total wall-time :   0.73 seconds

          ******************************************************



    ------------------------------------------------------------------------
         total  cpu-time :   0.07 seconds
         total wall-time :   0.75 seconds
    ------------------------------------------------------------------------

   ****  mdprep : all done  ****


    2018-03-07 14:28:13.446 

mdprep ended normally
md prep done
job series identifier 142813
 define ended normally 
***definp.py done***

 mdprep (gplogin1.local) : TURBOMOLE V7.2 ( 21454 ) 2 Oct 2017 at 16:43:05
 Copyright (C) 2017 TURBOMOLE GmbH, Karlsruhe


    2018-03-07 14:28:14.629 


 mdprep (gplogin1.local) : TURBOMOLE V7.2 ( 21454 ) 2 Oct 2017 at 16:43:05
 Copyright (C) 2017 TURBOMOLE GmbH, Karlsruhe


    2018-03-07 14:28:14.629 

 
       `--._            A b     I n i t i o           .-
            `.  M o l e c u l a r   D y n a m i c s  /
              \               .-.       .           / 
               \             /   \     / `.        /  
                `-----._    /     `._.'    `--.__.'   
                        `--'                          
 
 
No default master file present: mdmaster                                        

Reading from control                                                                         

...................................

     NUMBER OF ATOMS                         
. . . . . . . . . . . . . . . . . .

Reading from control                                                                         
Current status of NUMBER OF ATOMS                         
     9   atoms                                                                  

Enter option:
     d  Default: count atoms in TURBOMOLE $coord in control                   
     i  Interactively enter number of atoms                                   
     h         Help
     q or '*'  Terminates this menu ('qq' to abort <mdprep>)


...................................

     INITIAL POSITION                        
. . . . . . . . . . . . . . . . . .

Reading from control                                                                         
Checking for non-default isotopic masses in control                                                                         
 
Current status of INITIAL POSITION                        
atomic coordinates from $coord in control                                       

Enter option:
     d  Default: use TURBOMOLE $coord                                         
     h         Help
     q or '*'  Terminates this menu ('qq' to abort <mdprep>)


...................................

     Cavity Barrier Attributes:              
. . . . . . . . . . . . . . . . . .

Current Cavity Barrier Attributes:              


Enter option:
     d  Reset to (d)efaults                                                   
     a  Toggle (A)ngstromicity                                                
     t  (T)ype of cavity                                                      
     l  Barrier size (l)imits                                                 
     c  Barrier spring (c)onstant                                             
     s  Barrier (s)pring length limit                                         
     k  Temperature in (K)elvin                                               
     h         Help
     &         Back to previous menu and reset
     q or '*'  Terminates this menu ('qq' to abort <mdprep>)


...................................

     Distance Constraints:                   
. . . . . . . . . . . . . . . . . .

Current Distance Constraints:                   

$constraints                                                                    
  algorithm   none                                                              
  tolerance  0.1000000E-01                                                      
  corpercyc  0.2500000                                                          

Enter option:
     d  Reset to (d)efaults                                                   
     a  Toggle (A)ngstromicity                                                
     g  Constraint al(g)orithm                                                
     t  (T)olerance for convergence                                           
     c  (C)orrection fraction per cycle of constraint algorithm               
     b  Constrain (b)ond type                                                 
     e  Enter constraint (e)xplicitly                                         
     r  (R)emove numbered constraint                                          
     v  Con(v)ert to all explicit for current geometry                        
     h         Help
     &         Back to previous menu and reset
     q or '*'  Terminates this menu ('qq' to abort <mdprep>)


...................................

     INITIAL VELOCITY                        
. . . . . . . . . . . . . . . . . .

Assigning random velocity, with KE about  0.166272750000E-01
     representing a temperature of about   500.000000000    

Current status of INITIAL VELOCITY                        
random velocity at temperature of   500.000000000     K                         

Enter option:
     d  Default: random velocity at temperature of   500.000000000     K      
     i  Interactively enter temperature for random velocity                   
     z  Zero velocity                                                         
     r  generate non-reproducible random velocity                             
     h         Help
     &         Back to previous menu and reset
     q or '*'  Terminates this menu ('qq' to abort <mdprep>)


Enter temperature (K): 

Assigning random velocity, with KE about  0.133018200000E-01
     representing a temperature of about   400.000000000    

Current status of INITIAL VELOCITY                        
random velocity at temperature of   400.000000000     K                         

Enter option:
     d  Default: random velocity at temperature of   500.000000000     K      
     i  Interactively enter temperature for random velocity                   
     z  Zero velocity                                                         
     r  generate non-reproducible random velocity                             
     h         Help
     &         Back to previous menu and reset
     q or '*'  Terminates this menu ('qq' to abort <mdprep>)


...................................

     TIME-STEP                               
. . . . . . . . . . . . . . . . . .

Enter option:
     d  Default timestep:   80.0000000000     a.u. (  1.93504000000     fs)   
     i  Interactively enter timestep                                          
     h         Help
     &         Back to previous menu and reset
     q or '*'  Terminates this menu ('qq' to abort <mdprep>)


Enter timestep (a.u.): 

Enter option:
     d  Default timestep:   80.0000000000     a.u. (  1.93504000000     fs)   
     i  Interactively enter timestep                                          
     h         Help
     &         Back to previous menu and reset
     q or '*'  Terminates this menu ('qq' to abort <mdprep>)


...................................

     NAME OF LOG FILE                        
. . . . . . . . . . . . . . . . . .

Default log file= mdlog.1                                                                         

Current status of log file
log file= mdlog.1                                                               
maxlog 256

Enter option:
     d  Default filename                                                      
     i  Interactively enter file name                                         
     s  Set number of steps before starting new logfile                       
     h         Help
     &         Back to previous menu and reset
     q or '*'  Terminates this menu ('qq' to abort <mdprep>)


...................................

     STARTING TIME                           
. . . . . . . . . . . . . . . . . .

Current status of STARTING TIME                           
simulation starting at t=   0.00000000000     a.u. (  0.00000000000     fs)     

Enter option:
     d  Default: t=   0.00000000000     a.u. (  0.00000000000     fs)         
     i  Interactively enter starting time                                     
     h         Help
     &         Back to previous menu and reset
     q or '*'  Terminates this menu ('qq' to abort <mdprep>)


...................................

     NUMBER OF MD STEPS                      
. . . . . . . . . . . . . . . . . .

Current status of NUMBER OF MD STEPS                      
   256   MD steps                                                               

Enter option:
     d  Default:    256   steps                                               
     i  Interactively enter number of steps                                   
     h         Help
     &         Back to previous menu and reset
     q or '*'  Terminates this menu ('qq' to abort <mdprep>)


Enter number of MD steps: 

Current status of NUMBER OF MD STEPS                      
  1500   MD steps                                                               

Enter option:
     d  Default:    256   steps                                               
     i  Interactively enter number of steps                                   
     h         Help
     &         Back to previous menu and reset
     q or '*'  Terminates this menu ('qq' to abort <mdprep>)

...................................

Title of project:                                                                                 
   AIMD simulation
   starting at t=   0.000000000     a.u. (  0.000000000     fs),
   doing   1500 steps of   40.00000000     a.u. ( 0.9675200000     fs),
   finishing at t=   60000.00000     a.u. (  1451.280000     fs)
   and logging to file mdlog.1                                                                         

...................................

     DYNAMICS TYPE                           
. . . . . . . . . . . . . . . . . .

Current status of DYNAMICS TYPE                           
free                                                                            

Enter option:
     f  Free dynamics + user-defined actions (default)                        
     c  Canonical (Nose-Hoover) dynamics using thermostat                     
     h         Help
     &         Back to previous menu and reset
     q or '*'  Terminates this menu ('qq' to abort <mdprep>)


...................................

     USER-DEFINED ACTIONS                    
. . . . . . . . . . . . . . . . . .

Enter option:
     d  Default: free dynamics                                                
     f  Fix temperature or total energy and keep it fixed                     
     a  Simulated Annealing                                                   
     s  Set a dynamical variable 'once off' to some value                     
     o  Order current list of actions by time                                 
     c  Cut and delete last action from current list                          
     h         Help
     &         Back to previous menu and reset
     q or '*'  Terminates this menu ('qq' to abort <mdprep>)


User specified starting coordinates:                                            
t=   0.00000000000                                                              
-0.315342379247E-01 -0.713978217253E-01  0.639740326123E-01 ti                  
 0.892716073806      -2.64052793151       1.82993916647     o                   
 -2.82350671145     -0.929574993055      -1.73715928252     o                   
 -3.82954096870      0.223636426662      -2.68590838178     h                   
-0.759251709027       2.75045915881       1.66639168446     o                   
-0.920855985651E-01   4.40037167550       2.14528475825     h                   
  2.61205939629       1.05045170309      -1.88476352309     o                   
  2.61519369605      0.212898435857E-01  -3.15793173416     h                   
  2.34700565300      -2.82175191176       2.68458273890     h                   
  40.0000000000       0.00000000000                                             
ti       -0.133468207689E-03  0.170112250928E-03 -0.146143468035E-03            
o        -0.102003936340E-03  0.122338478483E-03 -0.640396935634E-04            
o         0.227837248531E-03 -0.802350962611E-04 -0.191865644647E-03            
h         0.111690723979E-02  0.817595452647E-03  0.458619983846E-04            
o        -0.190594611941E-03 -0.111352014625E-03 -0.142557196879E-03            
h         0.446099049866E-03  0.967043002226E-03  0.531239878313E-03            
o         0.579266464832E-04 -0.128165218050E-03 -0.108357729411E-03            
h         0.566766821689E-03  0.111168112715E-02  0.492379589286E-03            
h         0.881839796911E-03 -0.333381534399E-03  0.128249914927E-02            

Total linear and angular momentum set to zero

Zero-momentum starting coordinates:                                             
t=   0.00000000000                                                              
-0.167898927758E-01 -0.896064132574E-01  0.636901853818E-01 ti                  
 0.907460418955      -2.65873652304       1.82965531924     o                   
 -2.80876236630     -0.947783584587      -1.73744312975     o                   
 -3.81479662356      0.205427835130      -2.68619222901     h                   
-0.744507363878       2.73225056728       1.66610783723     o                   
-0.773412534161E-01   4.38216308397       2.14500091102     h                   
  2.62680374144       1.03224311156      -1.88504737032     o                   
  2.62993804120      0.308125205357E-02  -3.15821558139     h                   
  2.36174999815      -2.83996050329       2.68429889167     h                   
  40.0000000000       0.00000000000                                             
ti       -0.116463077016E-03  0.119930604178E-03 -0.418669333702E-04            
o        -0.737798687307E-05  0.296590845537E-04 -0.369461959422E-04            
o         0.178642370764E-03 -0.107485086269E-03  0.634941735220E-04            
h         0.115919649159E-02  0.951056326505E-03  0.412962904799E-03            
o        -0.476339509201E-04 -0.215099936320E-03  0.431754699237E-04            
h         0.735692649664E-03  0.101030876485E-02  0.799378232217E-03            
o         0.529046602703E-06 -0.232847919448E-03 -0.143926717501E-03            
h         0.495066733809E-03  0.120996380805E-02  0.533500918221E-03            
h         0.117374563545E-02 -0.525029589617E-03  0.142154775441E-02            

 New kinetic energy calc. from velocities:   1.330182000000000E-002
 
Making new file mdlog.1                                                                         
Initializing $log_history: zero records in mdlog.1                                                                         
Writing data for next step ($current) to mdlog.1                                                                         
Making new file mdmaster                                                                        


    2018-03-07 14:28:15.091 

         total cpu-time :   0.06 seconds
         total wall-time :   0.46 seconds

          ******************************************************



    ------------------------------------------------------------------------
         total  cpu-time :   0.07 seconds
         total wall-time :   0.47 seconds
    ------------------------------------------------------------------------

   ****  mdprep : all done  ****


    2018-03-07 14:28:15.092 

mdprep ended normally
md prep done
job series identifier 142815
 define ended normally 
***definp.py done***

 mdprep (gplogin1.local) : TURBOMOLE V7.2 ( 21454 ) 2 Oct 2017 at 16:43:05
 Copyright (C) 2017 TURBOMOLE GmbH, Karlsruhe


    2018-03-07 14:28:16.397 


 mdprep (gplogin1.local) : TURBOMOLE V7.2 ( 21454 ) 2 Oct 2017 at 16:43:05
 Copyright (C) 2017 TURBOMOLE GmbH, Karlsruhe


    2018-03-07 14:28:16.397 

 
       `--._            A b     I n i t i o           .-
            `.  M o l e c u l a r   D y n a m i c s  /
              \               .-.       .           / 
               \             /   \     / `.        /  
                `-----._    /     `._.'    `--.__.'   
                        `--'                          
 
 
No default master file present: mdmaster                                        

Reading from control                                                                         

...................................

     NUMBER OF ATOMS                         
. . . . . . . . . . . . . . . . . .

Reading from control                                                                         
Current status of NUMBER OF ATOMS                         
     9   atoms                                                                  

Enter option:
     d  Default: count atoms in TURBOMOLE $coord in control                   
     i  Interactively enter number of atoms                                   
     h         Help
     q or '*'  Terminates this menu ('qq' to abort <mdprep>)


...................................

     INITIAL POSITION                        
. . . . . . . . . . . . . . . . . .

Reading from control                                                                         
Checking for non-default isotopic masses in control                                                                         
 
Current status of INITIAL POSITION                        
atomic coordinates from $coord in control                                       

Enter option:
     d  Default: use TURBOMOLE $coord                                         
     h         Help
     q or '*'  Terminates this menu ('qq' to abort <mdprep>)


...................................

     Cavity Barrier Attributes:              
. . . . . . . . . . . . . . . . . .

Current Cavity Barrier Attributes:              


Enter option:
     d  Reset to (d)efaults                                                   
     a  Toggle (A)ngstromicity                                                
     t  (T)ype of cavity                                                      
     l  Barrier size (l)imits                                                 
     c  Barrier spring (c)onstant                                             
     s  Barrier (s)pring length limit                                         
     k  Temperature in (K)elvin                                               
     h         Help
     &         Back to previous menu and reset
     q or '*'  Terminates this menu ('qq' to abort <mdprep>)


...................................

     Distance Constraints:                   
. . . . . . . . . . . . . . . . . .

Current Distance Constraints:                   

$constraints                                                                    
  algorithm   none                                                              
  tolerance  0.1000000E-01                                                      
  corpercyc  0.2500000                                                          

Enter option:
     d  Reset to (d)efaults                                                   
     a  Toggle (A)ngstromicity                                                
     g  Constraint al(g)orithm                                                
     t  (T)olerance for convergence                                           
     c  (C)orrection fraction per cycle of constraint algorithm               
     b  Constrain (b)ond type                                                 
     e  Enter constraint (e)xplicitly                                         
     r  (R)emove numbered constraint                                          
     v  Con(v)ert to all explicit for current geometry                        
     h         Help
     &         Back to previous menu and reset
     q or '*'  Terminates this menu ('qq' to abort <mdprep>)


...................................

     INITIAL VELOCITY                        
. . . . . . . . . . . . . . . . . .

Assigning random velocity, with KE about  0.166272750000E-01
     representing a temperature of about   500.000000000    

Current status of INITIAL VELOCITY                        
random velocity at temperature of   500.000000000     K                         

Enter option:
     d  Default: random velocity at temperature of   500.000000000     K      
     i  Interactively enter temperature for random velocity                   
     z  Zero velocity                                                         
     r  generate non-reproducible random velocity                             
     h         Help
     &         Back to previous menu and reset
     q or '*'  Terminates this menu ('qq' to abort <mdprep>)


Enter temperature (K): 

Assigning random velocity, with KE about  0.133018200000E-01
     representing a temperature of about   400.000000000    

Current status of INITIAL VELOCITY                        
random velocity at temperature of   400.000000000     K                         

Enter option:
     d  Default: random velocity at temperature of   500.000000000     K      
     i  Interactively enter temperature for random velocity                   
     z  Zero velocity                                                         
     r  generate non-reproducible random velocity                             
     h         Help
     &         Back to previous menu and reset
     q or '*'  Terminates this menu ('qq' to abort <mdprep>)


...................................

     TIME-STEP                               
. . . . . . . . . . . . . . . . . .

Enter option:
     d  Default timestep:   80.0000000000     a.u. (  1.93504000000     fs)   
     i  Interactively enter timestep                                          
     h         Help
     &         Back to previous menu and reset
     q or '*'  Terminates this menu ('qq' to abort <mdprep>)


Enter timestep (a.u.): 

Enter option:
     d  Default timestep:   80.0000000000     a.u. (  1.93504000000     fs)   
     i  Interactively enter timestep                                          
     h         Help
     &         Back to previous menu and reset
     q or '*'  Terminates this menu ('qq' to abort <mdprep>)


...................................

     NAME OF LOG FILE                        
. . . . . . . . . . . . . . . . . .

Default log file= mdlog.1                                                                         

Current status of log file
log file= mdlog.1                                                               
maxlog 256

Enter option:
     d  Default filename                                                      
     i  Interactively enter file name                                         
     s  Set number of steps before starting new logfile                       
     h         Help
     &         Back to previous menu and reset
     q or '*'  Terminates this menu ('qq' to abort <mdprep>)


...................................

     STARTING TIME                           
. . . . . . . . . . . . . . . . . .

Current status of STARTING TIME                           
simulation starting at t=   0.00000000000     a.u. (  0.00000000000     fs)     

Enter option:
     d  Default: t=   0.00000000000     a.u. (  0.00000000000     fs)         
     i  Interactively enter starting time                                     
     h         Help
     &         Back to previous menu and reset
     q or '*'  Terminates this menu ('qq' to abort <mdprep>)


...................................

     NUMBER OF MD STEPS                      
. . . . . . . . . . . . . . . . . .

Current status of NUMBER OF MD STEPS                      
   256   MD steps                                                               

Enter option:
     d  Default:    256   steps                                               
     i  Interactively enter number of steps                                   
     h         Help
     &         Back to previous menu and reset
     q or '*'  Terminates this menu ('qq' to abort <mdprep>)


Enter number of MD steps: 

Current status of NUMBER OF MD STEPS                      
  1500   MD steps                                                               

Enter option:
     d  Default:    256   steps                                               
     i  Interactively enter number of steps                                   
     h         Help
     &         Back to previous menu and reset
     q or '*'  Terminates this menu ('qq' to abort <mdprep>)

...................................

Title of project:                                                                                 
   AIMD simulation
   starting at t=   0.000000000     a.u. (  0.000000000     fs),
   doing   1500 steps of   40.00000000     a.u. ( 0.9675200000     fs),
   finishing at t=   60000.00000     a.u. (  1451.280000     fs)
   and logging to file mdlog.1                                                                         

...................................

     DYNAMICS TYPE                           
. . . . . . . . . . . . . . . . . .

Current status of DYNAMICS TYPE                           
free                                                                            

Enter option:
     f  Free dynamics + user-defined actions (default)                        
     c  Canonical (Nose-Hoover) dynamics using thermostat                     
     h         Help
     &         Back to previous menu and reset
     q or '*'  Terminates this menu ('qq' to abort <mdprep>)


...................................

     USER-DEFINED ACTIONS                    
. . . . . . . . . . . . . . . . . .

Enter option:
     d  Default: free dynamics                                                
     f  Fix temperature or total energy and keep it fixed                     
     a  Simulated Annealing                                                   
     s  Set a dynamical variable 'once off' to some value                     
     o  Order current list of actions by time                                 
     c  Cut and delete last action from current list                          
     h         Help
     &         Back to previous menu and reset
     q or '*'  Terminates this menu ('qq' to abort <mdprep>)


User specified starting coordinates:                                            
t=   0.00000000000                                                              
 0.105640226171      0.579346568642E-01 -0.769139323072E-01 ti                  
 0.627601481335      -2.38382262033       2.03493892503     o                   
 -2.86282529823     -0.794489054282      -1.65616543149     o                   
 -3.44459373989      -2.24148202293     -0.848533709901     h                   
-0.872453863291       2.61217051219       2.05582304442     o                   
 0.112428878331       3.07719375205       3.54387654940     h                   
  2.40658815105      0.682922080040      -2.41532359907     o                   
  4.42345260152      0.927110412233      -2.81079376786     h                   
 0.989447942014      -2.61676235772       3.94755890105     h                   
  40.0000000000       0.00000000000                                             
ti       -0.133468207689E-03  0.170112250928E-03 -0.146143468035E-03            
o        -0.102003936340E-03  0.122338478483E-03 -0.640396935634E-04            
o         0.227837248531E-03 -0.802350962611E-04 -0.191865644647E-03            
h         0.111690723979E-02  0.817595452647E-03  0.458619983846E-04            
o        -0.190594611941E-03 -0.111352014625E-03 -0.142557196879E-03            
h         0.446099049866E-03  0.967043002226E-03  0.531239878313E-03            
o         0.579266464832E-04 -0.128165218050E-03 -0.108357729411E-03            
h         0.566766821689E-03  0.111168112715E-02  0.492379589286E-03            
h         0.881839796911E-03 -0.333381534399E-03  0.128249914927E-02            

Total linear and angular momentum set to zero

Zero-momentum starting coordinates:                                             
t=   0.00000000000                                                              
 0.140657426572      0.253049188787E-01 -0.811132780999E-01 ti                  
 0.662618681736      -2.41645235832       2.03073957924     o                   
 -2.82780809783     -0.827118792267      -1.66036477728     o                   
 -3.40957653949      -2.27411176092     -0.852733055694     h                   
-0.837436662890       2.57954077420       2.05162369863     o                   
 0.147446078732       3.04456401406       3.53967720361     h                   
  2.44160535145      0.650292342054      -2.41952294487     o                   
  4.45846980192      0.894480674247      -2.81499311366     h                   
  1.02446514241      -2.64939209570       3.94335955525     h                   
  40.0000000000       0.00000000000                                             
ti       -0.121444568996E-03  0.117135672951E-03 -0.473727704642E-04            
o        -0.685032950333E-04  0.142747971069E-05 -0.280776395283E-04            
o         0.193103871945E-03 -0.406277573688E-04  0.170852986833E-04            
h         0.120100856335E-02  0.989323090479E-03  0.285427550425E-03            
o        -0.762921641027E-05 -0.218141420285E-03  0.544883823196E-04            
h         0.803912849347E-03  0.953736086374E-03  0.791059516881E-03            
o         0.118394833209E-04 -0.249836644772E-03 -0.953983575691E-04            
h         0.584428003563E-03  0.111294933041E-02  0.506096597879E-03            
h         0.113724824068E-02 -0.572055173248E-03  0.149246978021E-02            

 New kinetic energy calc. from velocities:   1.330182000000000E-002
 
Making new file mdlog.1                                                                         
Initializing $log_history: zero records in mdlog.1                                                                         
Writing data for next step ($current) to mdlog.1                                                                         
Making new file mdmaster                                                                        


    2018-03-07 14:28:16.923 

         total cpu-time :   0.06 seconds
         total wall-time :   0.53 seconds

          ******************************************************



    ------------------------------------------------------------------------
         total  cpu-time :   0.07 seconds
         total wall-time :   0.54 seconds
    ------------------------------------------------------------------------

   ****  mdprep : all done  ****


    2018-03-07 14:28:16.924 

mdprep ended normally
md prep done
job series identifier 142817
 define ended normally 
***definp.py done***

 mdprep (gplogin1.local) : TURBOMOLE V7.2 ( 21454 ) 2 Oct 2017 at 16:43:05
 Copyright (C) 2017 TURBOMOLE GmbH, Karlsruhe


    2018-03-07 14:28:17.948 


 mdprep (gplogin1.local) : TURBOMOLE V7.2 ( 21454 ) 2 Oct 2017 at 16:43:05
 Copyright (C) 2017 TURBOMOLE GmbH, Karlsruhe


    2018-03-07 14:28:17.948 

 
       `--._            A b     I n i t i o           .-
            `.  M o l e c u l a r   D y n a m i c s  /
              \               .-.       .           / 
               \             /   \     / `.        /  
                `-----._    /     `._.'    `--.__.'   
                        `--'                          
 
 
No default master file present: mdmaster                                        

Reading from control                                                                         

...................................

     NUMBER OF ATOMS                         
. . . . . . . . . . . . . . . . . .

Reading from control                                                                         
Current status of NUMBER OF ATOMS                         
     9   atoms                                                                  

Enter option:
     d  Default: count atoms in TURBOMOLE $coord in control                   
     i  Interactively enter number of atoms                                   
     h         Help
     q or '*'  Terminates this menu ('qq' to abort <mdprep>)


...................................

     INITIAL POSITION                        
. . . . . . . . . . . . . . . . . .

Reading from control                                                                         
Checking for non-default isotopic masses in control                                                                         
 
Current status of INITIAL POSITION                        
atomic coordinates from $coord in control                                       

Enter option:
     d  Default: use TURBOMOLE $coord                                         
     h         Help
     q or '*'  Terminates this menu ('qq' to abort <mdprep>)


...................................

     Cavity Barrier Attributes:              
. . . . . . . . . . . . . . . . . .

Current Cavity Barrier Attributes:              


Enter option:
     d  Reset to (d)efaults                                                   
     a  Toggle (A)ngstromicity                                                
     t  (T)ype of cavity                                                      
     l  Barrier size (l)imits                                                 
     c  Barrier spring (c)onstant                                             
     s  Barrier (s)pring length limit                                         
     k  Temperature in (K)elvin                                               
     h         Help
     &         Back to previous menu and reset
     q or '*'  Terminates this menu ('qq' to abort <mdprep>)


...................................

     Distance Constraints:                   
. . . . . . . . . . . . . . . . . .

Current Distance Constraints:                   

$constraints                                                                    
  algorithm   none                                                              
  tolerance  0.1000000E-01                                                      
  corpercyc  0.2500000                                                          

Enter option:
     d  Reset to (d)efaults                                                   
     a  Toggle (A)ngstromicity                                                
     g  Constraint al(g)orithm                                                
     t  (T)olerance for convergence                                           
     c  (C)orrection fraction per cycle of constraint algorithm               
     b  Constrain (b)ond type                                                 
     e  Enter constraint (e)xplicitly                                         
     r  (R)emove numbered constraint                                          
     v  Con(v)ert to all explicit for current geometry                        
     h         Help
     &         Back to previous menu and reset
     q or '*'  Terminates this menu ('qq' to abort <mdprep>)


...................................

     INITIAL VELOCITY                        
. . . . . . . . . . . . . . . . . .

Assigning random velocity, with KE about  0.166272750000E-01
     representing a temperature of about   500.000000000    

Current status of INITIAL VELOCITY                        
random velocity at temperature of   500.000000000     K                         

Enter option:
     d  Default: random velocity at temperature of   500.000000000     K      
     i  Interactively enter temperature for random velocity                   
     z  Zero velocity                                                         
     r  generate non-reproducible random velocity                             
     h         Help
     &         Back to previous menu and reset
     q or '*'  Terminates this menu ('qq' to abort <mdprep>)


Enter temperature (K): 

Assigning random velocity, with KE about  0.133018200000E-01
     representing a temperature of about   400.000000000    

Current status of INITIAL VELOCITY                        
random velocity at temperature of   400.000000000     K                         

Enter option:
     d  Default: random velocity at temperature of   500.000000000     K      
     i  Interactively enter temperature for random velocity                   
     z  Zero velocity                                                         
     r  generate non-reproducible random velocity                             
     h         Help
     &         Back to previous menu and reset
     q or '*'  Terminates this menu ('qq' to abort <mdprep>)


...................................

     TIME-STEP                               
. . . . . . . . . . . . . . . . . .

Enter option:
     d  Default timestep:   80.0000000000     a.u. (  1.93504000000     fs)   
     i  Interactively enter timestep                                          
     h         Help
     &         Back to previous menu and reset
     q or '*'  Terminates this menu ('qq' to abort <mdprep>)


Enter timestep (a.u.): 

Enter option:
     d  Default timestep:   80.0000000000     a.u. (  1.93504000000     fs)   
     i  Interactively enter timestep                                          
     h         Help
     &         Back to previous menu and reset
     q or '*'  Terminates this menu ('qq' to abort <mdprep>)


...................................

     NAME OF LOG FILE                        
. . . . . . . . . . . . . . . . . .

Default log file= mdlog.1                                                                         

Current status of log file
log file= mdlog.1                                                               
maxlog 256

Enter option:
     d  Default filename                                                      
     i  Interactively enter file name                                         
     s  Set number of steps before starting new logfile                       
     h         Help
     &         Back to previous menu and reset
     q or '*'  Terminates this menu ('qq' to abort <mdprep>)


...................................

     STARTING TIME                           
. . . . . . . . . . . . . . . . . .

Current status of STARTING TIME                           
simulation starting at t=   0.00000000000     a.u. (  0.00000000000     fs)     

Enter option:
     d  Default: t=   0.00000000000     a.u. (  0.00000000000     fs)         
     i  Interactively enter starting time                                     
     h         Help
     &         Back to previous menu and reset
     q or '*'  Terminates this menu ('qq' to abort <mdprep>)


...................................

     NUMBER OF MD STEPS                      
. . . . . . . . . . . . . . . . . .

Current status of NUMBER OF MD STEPS                      
   256   MD steps                                                               

Enter option:
     d  Default:    256   steps                                               
     i  Interactively enter number of steps                                   
     h         Help
     &         Back to previous menu and reset
     q or '*'  Terminates this menu ('qq' to abort <mdprep>)


Enter number of MD steps: 

Current status of NUMBER OF MD STEPS                      
  1500   MD steps                                                               

Enter option:
     d  Default:    256   steps                                               
     i  Interactively enter number of steps                                   
     h         Help
     &         Back to previous menu and reset
     q or '*'  Terminates this menu ('qq' to abort <mdprep>)

...................................

Title of project:                                                                                 
   AIMD simulation
   starting at t=   0.000000000     a.u. (  0.000000000     fs),
   doing   1500 steps of   40.00000000     a.u. ( 0.9675200000     fs),
   finishing at t=   60000.00000     a.u. (  1451.280000     fs)
   and logging to file mdlog.1                                                                         

...................................

     DYNAMICS TYPE                           
. . . . . . . . . . . . . . . . . .

Current status of DYNAMICS TYPE                           
free                                                                            

Enter option:
     f  Free dynamics + user-defined actions (default)                        
     c  Canonical (Nose-Hoover) dynamics using thermostat                     
     h         Help
     &         Back to previous menu and reset
     q or '*'  Terminates this menu ('qq' to abort <mdprep>)


...................................

     USER-DEFINED ACTIONS                    
. . . . . . . . . . . . . . . . . .

Enter option:
     d  Default: free dynamics                                                
     f  Fix temperature or total energy and keep it fixed                     
     a  Simulated Annealing                                                   
     s  Set a dynamical variable 'once off' to some value                     
     o  Order current list of actions by time                                 
     c  Cut and delete last action from current list                          
     h         Help
     &         Back to previous menu and reset
     q or '*'  Terminates this menu ('qq' to abort <mdprep>)


User specified starting coordinates:                                            
t=   0.00000000000                                                              
-0.835430915813E-01 -0.385437990694E-01  0.569419837266E-01 ti                  
  1.03488206051      -2.62471016789       1.85059028262     o                   
 -2.48114616179     -0.918154244198      -2.16570702857     o                   
 -4.01282720709      0.902497296270E-01  -2.13621501767     h                   
-0.800959665533       2.71974808559       1.82263121756     o                   
-0.576949451042       3.80857143370       3.35944853849     h                   
  2.57375351374      0.930263609258      -1.70810682193     o                   
  2.52509930192     -0.152392995562      -3.27972968568     h                   
  1.19734276102      -3.92635617383       3.06459173539     h                   
  40.0000000000       0.00000000000                                             
ti       -0.133468207689E-03  0.170112250928E-03 -0.146143468035E-03            
o        -0.102003936340E-03  0.122338478483E-03 -0.640396935634E-04            
o         0.227837248531E-03 -0.802350962611E-04 -0.191865644647E-03            
h         0.111690723979E-02  0.817595452647E-03  0.458619983846E-04            
o        -0.190594611941E-03 -0.111352014625E-03 -0.142557196879E-03            
h         0.446099049866E-03  0.967043002226E-03  0.531239878313E-03            
o         0.579266464832E-04 -0.128165218050E-03 -0.108357729411E-03            
h         0.566766821689E-03  0.111168112715E-02  0.492379589286E-03            
h         0.881839796911E-03 -0.333381534399E-03  0.128249914927E-02            

Total linear and angular momentum set to zero

Zero-momentum starting coordinates:                                             
t=   0.00000000000                                                              
-0.865476655198E-01 -0.358411407647E-01  0.523332003246E-01 ti                  
  1.03187748657      -2.62200750958       1.84598149922     o                   
 -2.48415073573     -0.915451585894      -2.17031581197     o                   
 -4.01583178102      0.929523879317E-01  -2.14082380107     h                   
-0.803964239472       2.72245074389       1.81802243416     o                   
-0.579954024981       3.81127409200       3.35483975509     h                   
  2.57074893980      0.932966267563      -1.71271560533     o                   
  2.52209472798     -0.149690337257      -3.28433846909     h                   
  1.19433818708      -3.92365351553       3.05998295198     h                   
  40.0000000000       0.00000000000                                             
ti       -0.116033052664E-03  0.120089093766E-03 -0.373372783900E-04            
o        -0.169387958491E-04  0.196599422584E-04 -0.488642900842E-04            
o         0.163485852888E-03 -0.956746335726E-04  0.265981251824E-04            
h         0.119531281557E-02  0.951145131645E-03  0.399479037835E-03            
o        -0.473037361303E-04 -0.222168888085E-03  0.531557909740E-04            
h         0.779560679488E-03  0.981549890532E-03  0.829898588421E-03            
o         0.193224291779E-04 -0.226826610767E-03 -0.123038309360E-03            
h         0.500412091387E-03  0.121829288474E-02  0.547997364319E-03            
h         0.115676929681E-02 -0.524341830964E-03  0.145960555276E-02            

 New kinetic energy calc. from velocities:   1.330182000000000E-002
 
Making new file mdlog.1                                                                         
Initializing $log_history: zero records in mdlog.1                                                                         
Writing data for next step ($current) to mdlog.1                                                                         
Making new file mdmaster                                                                        


    2018-03-07 14:28:18.208 

         total cpu-time :   0.06 seconds
         total wall-time :   0.26 seconds

          ******************************************************



    ------------------------------------------------------------------------
         total  cpu-time :   0.07 seconds
         total wall-time :   0.27 seconds
    ------------------------------------------------------------------------

   ****  mdprep : all done  ****


    2018-03-07 14:28:18.208 

mdprep ended normally
md prep done
job series identifier 142818
 define ended normally 
***definp.py done***

 mdprep (gplogin1.local) : TURBOMOLE V7.2 ( 21454 ) 2 Oct 2017 at 16:43:05
 Copyright (C) 2017 TURBOMOLE GmbH, Karlsruhe


    2018-03-07 14:28:19.415 


 mdprep (gplogin1.local) : TURBOMOLE V7.2 ( 21454 ) 2 Oct 2017 at 16:43:05
 Copyright (C) 2017 TURBOMOLE GmbH, Karlsruhe


    2018-03-07 14:28:19.416 

 
       `--._            A b     I n i t i o           .-
            `.  M o l e c u l a r   D y n a m i c s  /
              \               .-.       .           / 
               \             /   \     / `.        /  
                `-----._    /     `._.'    `--.__.'   
                        `--'                          
 
 
No default master file present: mdmaster                                        

Reading from control                                                                         

...................................

     NUMBER OF ATOMS                         
. . . . . . . . . . . . . . . . . .

Reading from control                                                                         
Current status of NUMBER OF ATOMS                         
     9   atoms                                                                  

Enter option:
     d  Default: count atoms in TURBOMOLE $coord in control                   
     i  Interactively enter number of atoms                                   
     h         Help
     q or '*'  Terminates this menu ('qq' to abort <mdprep>)


...................................

     INITIAL POSITION                        
. . . . . . . . . . . . . . . . . .

Reading from control                                                                         
Checking for non-default isotopic masses in control                                                                         
 
Current status of INITIAL POSITION                        
atomic coordinates from $coord in control                                       

Enter option:
     d  Default: use TURBOMOLE $coord                                         
     h         Help
     q or '*'  Terminates this menu ('qq' to abort <mdprep>)


...................................

     Cavity Barrier Attributes:              
. . . . . . . . . . . . . . . . . .

Current Cavity Barrier Attributes:              


Enter option:
     d  Reset to (d)efaults                                                   
     a  Toggle (A)ngstromicity                                                
     t  (T)ype of cavity                                                      
     l  Barrier size (l)imits                                                 
     c  Barrier spring (c)onstant                                             
     s  Barrier (s)pring length limit                                         
     k  Temperature in (K)elvin                                               
     h         Help
     &         Back to previous menu and reset
     q or '*'  Terminates this menu ('qq' to abort <mdprep>)


...................................

     Distance Constraints:                   
. . . . . . . . . . . . . . . . . .

Current Distance Constraints:                   

$constraints                                                                    
  algorithm   none                                                              
  tolerance  0.1000000E-01                                                      
  corpercyc  0.2500000                                                          

Enter option:
     d  Reset to (d)efaults                                                   
     a  Toggle (A)ngstromicity                                                
     g  Constraint al(g)orithm                                                
     t  (T)olerance for convergence                                           
     c  (C)orrection fraction per cycle of constraint algorithm               
     b  Constrain (b)ond type                                                 
     e  Enter constraint (e)xplicitly                                         
     r  (R)emove numbered constraint                                          
     v  Con(v)ert to all explicit for current geometry                        
     h         Help
     &         Back to previous menu and reset
     q or '*'  Terminates this menu ('qq' to abort <mdprep>)


...................................

     INITIAL VELOCITY                        
. . . . . . . . . . . . . . . . . .

Assigning random velocity, with KE about  0.166272750000E-01
     representing a temperature of about   500.000000000    

Current status of INITIAL VELOCITY                        
random velocity at temperature of   500.000000000     K                         

Enter option:
     d  Default: random velocity at temperature of   500.000000000     K      
     i  Interactively enter temperature for random velocity                   
     z  Zero velocity                                                         
     r  generate non-reproducible random velocity                             
     h         Help
     &         Back to previous menu and reset
     q or '*'  Terminates this menu ('qq' to abort <mdprep>)


Enter temperature (K): 

Assigning random velocity, with KE about  0.133018200000E-01
     representing a temperature of about   400.000000000    

Current status of INITIAL VELOCITY                        
random velocity at temperature of   400.000000000     K                         

Enter option:
     d  Default: random velocity at temperature of   500.000000000     K      
     i  Interactively enter temperature for random velocity                   
     z  Zero velocity                                                         
     r  generate non-reproducible random velocity                             
     h         Help
     &         Back to previous menu and reset
     q or '*'  Terminates this menu ('qq' to abort <mdprep>)


...................................

     TIME-STEP                               
. . . . . . . . . . . . . . . . . .

Enter option:
     d  Default timestep:   80.0000000000     a.u. (  1.93504000000     fs)   
     i  Interactively enter timestep                                          
     h         Help
     &         Back to previous menu and reset
     q or '*'  Terminates this menu ('qq' to abort <mdprep>)


Enter timestep (a.u.): 

Enter option:
     d  Default timestep:   80.0000000000     a.u. (  1.93504000000     fs)   
     i  Interactively enter timestep                                          
     h         Help
     &         Back to previous menu and reset
     q or '*'  Terminates this menu ('qq' to abort <mdprep>)


...................................

     NAME OF LOG FILE                        
. . . . . . . . . . . . . . . . . .

Default log file= mdlog.1                                                                         

Current status of log file
log file= mdlog.1                                                               
maxlog 256

Enter option:
     d  Default filename                                                      
     i  Interactively enter file name                                         
     s  Set number of steps before starting new logfile                       
     h         Help
     &         Back to previous menu and reset
     q or '*'  Terminates this menu ('qq' to abort <mdprep>)


...................................

     STARTING TIME                           
. . . . . . . . . . . . . . . . . .

Current status of STARTING TIME                           
simulation starting at t=   0.00000000000     a.u. (  0.00000000000     fs)     

Enter option:
     d  Default: t=   0.00000000000     a.u. (  0.00000000000     fs)         
     i  Interactively enter starting time                                     
     h         Help
     &         Back to previous menu and reset
     q or '*'  Terminates this menu ('qq' to abort <mdprep>)


...................................

     NUMBER OF MD STEPS                      
. . . . . . . . . . . . . . . . . .

Current status of NUMBER OF MD STEPS                      
   256   MD steps                                                               

Enter option:
     d  Default:    256   steps                                               
     i  Interactively enter number of steps                                   
     h         Help
     &         Back to previous menu and reset
     q or '*'  Terminates this menu ('qq' to abort <mdprep>)


Enter number of MD steps: 

Current status of NUMBER OF MD STEPS                      
  1500   MD steps                                                               

Enter option:
     d  Default:    256   steps                                               
     i  Interactively enter number of steps                                   
     h         Help
     &         Back to previous menu and reset
     q or '*'  Terminates this menu ('qq' to abort <mdprep>)

...................................

Title of project:                                                                                 
   AIMD simulation
   starting at t=   0.000000000     a.u. (  0.000000000     fs),
   doing   1500 steps of   40.00000000     a.u. ( 0.9675200000     fs),
   finishing at t=   60000.00000     a.u. (  1451.280000     fs)
   and logging to file mdlog.1                                                                         

...................................

     DYNAMICS TYPE                           
. . . . . . . . . . . . . . . . . .

Current status of DYNAMICS TYPE                           
free                                                                            

Enter option:
     f  Free dynamics + user-defined actions (default)                        
     c  Canonical (Nose-Hoover) dynamics using thermostat                     
     h         Help
     &         Back to previous menu and reset
     q or '*'  Terminates this menu ('qq' to abort <mdprep>)


...................................

     USER-DEFINED ACTIONS                    
. . . . . . . . . . . . . . . . . .

Enter option:
     d  Default: free dynamics                                                
     f  Fix temperature or total energy and keep it fixed                     
     a  Simulated Annealing                                                   
     s  Set a dynamical variable 'once off' to some value                     
     o  Order current list of actions by time                                 
     c  Cut and delete last action from current list                          
     h         Help
     &         Back to previous menu and reset
     q or '*'  Terminates this menu ('qq' to abort <mdprep>)


User specified starting coordinates:                                            
t=   0.00000000000                                                              
 0.684984149196E-01  0.126306460133     -0.567225865225E-01 ti                  
 0.859001658842      -2.49104398036       1.87436965141     o                   
 -2.43414149191     -0.981785669463      -1.82203066260     o                   
 -2.85710906565      -1.44971190661      -3.52445299934     h                   
 -1.13887066604       2.55827155445       2.30568168884     o                   
-0.978024547541       1.56249964393       3.91638201033     h                   
  2.59386964843      0.669920008355      -2.15416004600     o                   
  4.32510237185     -0.176284992032      -1.76015460394     h                   
-0.718256368245      -3.42744712085       1.81345508541     h                   
  40.0000000000       0.00000000000                                             
ti       -0.133468207689E-03  0.170112250928E-03 -0.146143468035E-03            
o        -0.102003936340E-03  0.122338478483E-03 -0.640396935634E-04            
o         0.227837248531E-03 -0.802350962611E-04 -0.191865644647E-03            
h         0.111690723979E-02  0.817595452647E-03  0.458619983846E-04            
o        -0.190594611941E-03 -0.111352014625E-03 -0.142557196879E-03            
h         0.446099049866E-03  0.967043002226E-03  0.531239878313E-03            
o         0.579266464832E-04 -0.128165218050E-03 -0.108357729411E-03            
h         0.566766821689E-03  0.111168112715E-02  0.492379589286E-03            
h         0.881839796911E-03 -0.333381534399E-03  0.128249914927E-02            

Total linear and angular momentum set to zero

Zero-momentum starting coordinates:                                             
t=   0.00000000000                                                              
 0.587615862333E-01  0.138233973059     -0.652917086058E-01 ti                  
 0.849264830155      -2.47911646743       1.86580052933     o                   
 -2.44387832059     -0.969858156537      -1.83059978468     o                   
 -2.86684589434      -1.43778439368      -3.53302212143     h                   
 -1.14860749473       2.57019906738       2.29711256676     o                   
-0.987761376227       1.57442715686       3.90781288825     h                   
  2.58413281974      0.681847521281      -2.16272916809     o                   
  4.31536554316     -0.164357479106      -1.76872372602     h                   
-0.727993196932      -3.41551960792       1.80488596333     h                   
  40.0000000000       0.00000000000                                             
ti       -0.118328789344E-03  0.120799456363E-03 -0.415941942281E-04            
o        -0.771736601089E-04 -0.635082803008E-05 -0.459105013807E-04            
o         0.176630365958E-03 -0.428098967214E-04  0.966497124081E-06            
h         0.110717253992E-02  0.105032990442E-02  0.285690107802E-03            
o         0.126402091852E-04 -0.219031754361E-03  0.777787674801E-04            
h         0.793773702297E-03  0.986018797899E-03  0.826575116411E-03            
o         0.199670671418E-04 -0.261250493578E-03 -0.107601863353E-03            
h         0.599232883423E-03  0.110570038370E-02  0.484005787559E-03            
h         0.102671605293E-02 -0.478799249725E-03  0.156710750677E-02            

 New kinetic energy calc. from velocities:   1.330182000000000E-002
 
Making new file mdlog.1                                                                         
Initializing $log_history: zero records in mdlog.1                                                                         
Writing data for next step ($current) to mdlog.1                                                                         
Making new file mdmaster                                                                        


    2018-03-07 14:28:19.690 

         total cpu-time :   0.06 seconds
         total wall-time :   0.27 seconds

          ******************************************************



    ------------------------------------------------------------------------
         total  cpu-time :   0.07 seconds
         total wall-time :   0.29 seconds
    ------------------------------------------------------------------------

   ****  mdprep : all done  ****


    2018-03-07 14:28:19.690 

mdprep ended normally
md prep done
job series identifier 142819
 define ended normally 
***definp.py done***

 mdprep (gplogin1.local) : TURBOMOLE V7.2 ( 21454 ) 2 Oct 2017 at 16:43:05
 Copyright (C) 2017 TURBOMOLE GmbH, Karlsruhe


    2018-03-07 14:28:20.746 


 mdprep (gplogin1.local) : TURBOMOLE V7.2 ( 21454 ) 2 Oct 2017 at 16:43:05
 Copyright (C) 2017 TURBOMOLE GmbH, Karlsruhe


    2018-03-07 14:28:20.746 

 
       `--._            A b     I n i t i o           .-
            `.  M o l e c u l a r   D y n a m i c s  /
              \               .-.       .           / 
               \             /   \     / `.        /  
                `-----._    /     `._.'    `--.__.'   
                        `--'                          
 
 
No default master file present: mdmaster                                        

Reading from control                                                                         

...................................

     NUMBER OF ATOMS                         
. . . . . . . . . . . . . . . . . .

Reading from control                                                                         
Current status of NUMBER OF ATOMS                         
     9   atoms                                                                  

Enter option:
     d  Default: count atoms in TURBOMOLE $coord in control                   
     i  Interactively enter number of atoms                                   
     h         Help
     q or '*'  Terminates this menu ('qq' to abort <mdprep>)


...................................

     INITIAL POSITION                        
. . . . . . . . . . . . . . . . . .

Reading from control                                                                         
Checking for non-default isotopic masses in control                                                                         
 
Current status of INITIAL POSITION                        
atomic coordinates from $coord in control                                       

Enter option:
     d  Default: use TURBOMOLE $coord                                         
     h         Help
     q or '*'  Terminates this menu ('qq' to abort <mdprep>)


...................................

     Cavity Barrier Attributes:              
. . . . . . . . . . . . . . . . . .

Current Cavity Barrier Attributes:              


Enter option:
     d  Reset to (d)efaults                                                   
     a  Toggle (A)ngstromicity                                                
     t  (T)ype of cavity                                                      
     l  Barrier size (l)imits                                                 
     c  Barrier spring (c)onstant                                             
     s  Barrier (s)pring length limit                                         
     k  Temperature in (K)elvin                                               
     h         Help
     &         Back to previous menu and reset
     q or '*'  Terminates this menu ('qq' to abort <mdprep>)


...................................

     Distance Constraints:                   
. . . . . . . . . . . . . . . . . .

Current Distance Constraints:                   

$constraints                                                                    
  algorithm   none                                                              
  tolerance  0.1000000E-01                                                      
  corpercyc  0.2500000                                                          

Enter option:
[...]
     c  Cut and delete last action from current list                          
     h         Help
     &         Back to previous menu and reset
     q or '*'  Terminates this menu ('qq' to abort <mdprep>)


User specified starting coordinates:                                            
t=   0.00000000000                                                              
-0.737484520620E-02 -0.334220743314E-01 -0.248551709834     ti                  
 0.532140642924      -2.43287178492       2.08759576578     o                   
 -3.14612774884     -0.738151782917      -1.78128004135     o                   
 -4.51737444696     -0.483157807724      -2.91066031378     h                   
-0.332934028791       2.09895679929       2.04239011517     o                   
-0.889446469651       3.87691016676       2.28754504228     h                   
  3.06002199965      0.934752464714      -1.72827530202     o                   
  2.72571867531       2.84738113347      -1.64318433577     h                   
-0.618611865149      -2.73736751411       3.39739877458     h                   
  40.0000000000       0.00000000000                                             
ti       -0.133468207689E-03  0.170112250928E-03 -0.146143468035E-03            
o        -0.102003936340E-03  0.122338478483E-03 -0.640396935634E-04            
o         0.227837248531E-03 -0.802350962611E-04 -0.191865644647E-03            
h         0.111690723979E-02  0.817595452647E-03  0.458619983846E-04            
o        -0.190594611941E-03 -0.111352014625E-03 -0.142557196879E-03            
h         0.446099049866E-03  0.967043002226E-03  0.531239878313E-03            
o         0.579266464832E-04 -0.128165218050E-03 -0.108357729411E-03            
h         0.566766821689E-03  0.111168112715E-02  0.492379589286E-03            
h         0.881839796911E-03 -0.333381534399E-03  0.128249914927E-02            

Total linear and angular momentum set to zero

Zero-momentum starting coordinates:                                             
t=   0.00000000000                                                              
 0.875325210505E-02 -0.311260850807E-01 -0.241314581448     ti                  
 0.548268740236      -2.43057579567       2.09483289417     o                   
 -3.12999965153     -0.735855793667      -1.77404291297     o                   
 -4.50124634965     -0.480861818474      -2.90342318540     h                   
-0.316805931479       2.10125278854       2.04962724356     o                   
-0.873318372339       3.87920615601       2.29478217067     h                   
  3.07615009696      0.937048453965      -1.72103817364     o                   
  2.74184677262       2.84967712272      -1.63594720738     h                   
-0.602483767837      -2.73507152486       3.40463590297     h                   
  40.0000000000       0.00000000000                                             
ti       -0.124449248863E-03  0.118856140875E-03 -0.409256112930E-04            
o        -0.102148053897E-04  0.383534609869E-04  0.368294883795E-05            
o         0.213996817548E-03 -0.128079590872E-03  0.223232875966E-04            
h         0.115836713044E-02  0.887000892444E-03  0.342033891492E-03            
o        -0.892482106662E-04 -0.216552872128E-03 -0.155203379804E-05            
h         0.635269875444E-03  0.980489742919E-03  0.786946777246E-03            
o         0.352125133605E-04 -0.210688239680E-03 -0.107406246789E-03            
h         0.612234383231E-03  0.116625199262E-02  0.592827430334E-03            
h         0.113120593531E-02 -0.476169943420E-03  0.153971725996E-02            

 New kinetic energy calc. from velocities:   1.330182000000000E-002
 
Making new file mdlog.1                                                                         
Initializing $log_history: zero records in mdlog.1                                                                         
Writing data for next step ($current) to mdlog.1                                                                         
Making new file mdmaster                                                                        


    2018-03-07 14:29:07.874 

         total cpu-time :   0.06 seconds
         total wall-time :   0.13 seconds

          ******************************************************



    ------------------------------------------------------------------------
         total  cpu-time :   0.07 seconds
         total wall-time :   0.15 seconds
    ------------------------------------------------------------------------

   ****  mdprep : all done  ****


    2018-03-07 14:29:07.875 

mdprep ended normally
md prep done
job series identifier 142908
 define ended normally 
***definp.py done***

 mdprep (gplogin1.local) : TURBOMOLE V7.2 ( 21454 ) 2 Oct 2017 at 16:43:05
 Copyright (C) 2017 TURBOMOLE GmbH, Karlsruhe


    2018-03-07 14:29:30.870 


 mdprep (gplogin1.local) : TURBOMOLE V7.2 ( 21454 ) 2 Oct 2017 at 16:43:05
 Copyright (C) 2017 TURBOMOLE GmbH, Karlsruhe


    2018-03-07 14:29:30.870 

 
       `--._            A b     I n i t i o           .-
            `.  M o l e c u l a r   D y n a m i c s  /
              \               .-.       .           / 
               \             /   \     / `.        /  
                `-----._    /     `._.'    `--.__.'   
                        `--'                          
 
 
No default master file present: mdmaster                                        

Reading from control                                                                         

...................................

     NUMBER OF ATOMS                         
. . . . . . . . . . . . . . . . . .

Reading from control                                                                         
Current status of NUMBER OF ATOMS                         
     9   atoms                                                                  

Enter option:
     d  Default: count atoms in TURBOMOLE $coord in control                   
     i  Interactively enter number of atoms                                   
     h         Help
     q or '*'  Terminates this menu ('qq' to abort <mdprep>)


...................................

     INITIAL POSITION                        
. . . . . . . . . . . . . . . . . .

Reading from control                                                                         
Checking for non-default isotopic masses in control                                                                         
 
Current status of INITIAL POSITION                        
atomic coordinates from $coord in control                                       

Enter option:
     d  Default: use TURBOMOLE $coord                                         
     h         Help
     q or '*'  Terminates this menu ('qq' to abort <mdprep>)


...................................

     Cavity Barrier Attributes:              
. . . . . . . . . . . . . . . . . .

Current Cavity Barrier Attributes:              


Enter option:
     d  Reset to (d)efaults                                                   
     a  Toggle (A)ngstromicity                                                
     t  (T)ype of cavity                                                      
     l  Barrier size (l)imits                                                 
     c  Barrier spring (c)onstant                                             
     s  Barrier (s)pring length limit                                         
     k  Temperature in (K)elvin                                               
     h         Help
     &         Back to previous menu and reset
     q or '*'  Terminates this menu ('qq' to abort <mdprep>)


...................................

     Distance Constraints:                   
. . . . . . . . . . . . . . . . . .

Current Distance Constraints:                   

$constraints                                                                    
  algorithm   none                                                              
  tolerance  0.1000000E-01                                                      
  corpercyc  0.2500000                                                          

Enter option:
     d  Reset to (d)efaults                                                   
     a  Toggle (A)ngstromicity                                                
     g  Constraint al(g)orithm                                                
     t  (T)olerance for convergence                                           
     c  (C)orrection fraction per cycle of constraint algorithm               
     b  Constrain (b)ond type                                                 
     e  Enter constraint (e)xplicitly                                         
     r  (R)emove numbered constraint                                          
     v  Con(v)ert to all explicit for current geometry                        
     h         Help
     &         Back to previous menu and reset
     q or '*'  Terminates this menu ('qq' to abort <mdprep>)


...................................

     INITIAL VELOCITY                        
. . . . . . . . . . . . . . . . . .

Assigning random velocity, with KE about  0.166272750000E-01
     representing a temperature of about   500.000000000    

Current status of INITIAL VELOCITY                        
random velocity at temperature of   500.000000000     K                         

Enter option:
     d  Default: random velocity at temperature of   500.000000000     K      
     i  Interactively enter temperature for random velocity                   
     z  Zero velocity                                                         
     r  generate non-reproducible random velocity                             
     h         Help
     &         Back to previous menu and reset
     q or '*'  Terminates this menu ('qq' to abort <mdprep>)


Enter temperature (K): 

Assigning random velocity, with KE about  0.133018200000E-01
     representing a temperature of about   400.000000000    

Current status of INITIAL VELOCITY                        
random velocity at temperature of   400.000000000     K                         

Enter option:
     d  Default: random velocity at temperature of   500.000000000     K      
     i  Interactively enter temperature for random velocity                   
     z  Zero velocity                                                         
     r  generate non-reproducible random velocity                             
     h         Help
     &         Back to previous menu and reset
     q or '*'  Terminates this menu ('qq' to abort <mdprep>)


...................................

     TIME-STEP                               
. . . . . . . . . . . . . . . . . .

Enter option:
     d  Default timestep:   80.0000000000     a.u. (  1.93504000000     fs)   
     i  Interactively enter timestep                                          
     h         Help
     &         Back to previous menu and reset
     q or '*'  Terminates this menu ('qq' to abort <mdprep>)


Enter timestep (a.u.): 

Enter option:
     d  Default timestep:   80.0000000000     a.u. (  1.93504000000     fs)   
     i  Interactively enter timestep                                          
     h         Help
     &         Back to previous menu and reset
     q or '*'  Terminates this menu ('qq' to abort <mdprep>)


...................................

     NAME OF LOG FILE                        
. . . . . . . . . . . . . . . . . .

Default log file= mdlog.1                                                                         

Current status of log file
log file= mdlog.1                                                               
maxlog 256

Enter option:
     d  Default filename                                                      
     i  Interactively enter file name                                         
     s  Set number of steps before starting new logfile                       
     h         Help
     &         Back to previous menu and reset
     q or '*'  Terminates this menu ('qq' to abort <mdprep>)


...................................

     STARTING TIME                           
. . . . . . . . . . . . . . . . . .

Current status of STARTING TIME                           
simulation starting at t=   0.00000000000     a.u. (  0.00000000000     fs)     

Enter option:
     d  Default: t=   0.00000000000     a.u. (  0.00000000000     fs)         
     i  Interactively enter starting time                                     
     h         Help
     &         Back to previous menu and reset
     q or '*'  Terminates this menu ('qq' to abort <mdprep>)


...................................

     NUMBER OF MD STEPS                      
. . . . . . . . . . . . . . . . . .

Current status of NUMBER OF MD STEPS                      
   256   MD steps                                                               

Enter option:
     d  Default:    256   steps                                               
     i  Interactively enter number of steps                                   
     h         Help
     &         Back to previous menu and reset
     q or '*'  Terminates this menu ('qq' to abort <mdprep>)


Enter number of MD steps: 

Current status of NUMBER OF MD STEPS                      
  1500   MD steps                                                               

Enter option:
     d  Default:    256   steps                                               
     i  Interactively enter number of steps                                   
     h         Help
     &         Back to previous menu and reset
     q or '*'  Terminates this menu ('qq' to abort <mdprep>)

...................................

Title of project:                                                                                 
   AIMD simulation
   starting at t=   0.000000000     a.u. (  0.000000000     fs),
   doing   1500 steps of   40.00000000     a.u. ( 0.9675200000     fs),
   finishing at t=   60000.00000     a.u. (  1451.280000     fs)
   and logging to file mdlog.1                                                                         

...................................

     DYNAMICS TYPE                           
. . . . . . . . . . . . . . . . . .

Current status of DYNAMICS TYPE                           
free                                                                            

Enter option:
     f  Free dynamics + user-defined actions (default)                        
     c  Canonical (Nose-Hoover) dynamics using thermostat                     
     h         Help
     &         Back to previous menu and reset
     q or '*'  Terminates this menu ('qq' to abort <mdprep>)


...................................

     USER-DEFINED ACTIONS                    
. . . . . . . . . . . . . . . . . .

Enter option:
     d  Default: free dynamics                                                
     f  Fix temperature or total energy and keep it fixed                     
     a  Simulated Annealing                                                   
     s  Set a dynamical variable 'once off' to some value                     
     o  Order current list of actions by time                                 
     c  Cut and delete last action from current list                          
     h         Help
     &         Back to previous menu and reset
     q or '*'  Terminates this menu ('qq' to abort <mdprep>)


User specified starting coordinates:                                            
t=   0.00000000000                                                              
 0.116555095342      0.126353136368      0.323375038120     ti                  
 0.567167094743      -3.15255130591       1.18175818960     o                   
 -2.43817586823     -0.186525606919      -2.08238068857     o                   
 -4.14753879111      0.337403420067      -1.79332912415     h                   
-0.936693213453       2.74175545819       1.98809922824     o                   
 -1.41730178062       4.33914322599       2.96201381041     h                   
  2.22178332875      0.233084490409      -2.18684626098     o                   
  3.74220538575     -0.823750896531      -1.61001435090     h                   
  1.72512777418      -4.27998875090      0.460313853367     h                   
  40.0000000000       0.00000000000                                             
ti       -0.133468207689E-03  0.170112250928E-03 -0.146143468035E-03            
o        -0.102003936340E-03  0.122338478483E-03 -0.640396935634E-04            
o         0.227837248531E-03 -0.802350962611E-04 -0.191865644647E-03            
h         0.111690723979E-02  0.817595452647E-03  0.458619983846E-04            
o        -0.190594611941E-03 -0.111352014625E-03 -0.142557196879E-03            
h         0.446099049866E-03  0.967043002226E-03  0.531239878313E-03            
o         0.579266464832E-04 -0.128165218050E-03 -0.108357729411E-03            
h         0.566766821689E-03  0.111168112715E-02  0.492379589286E-03            
h         0.881839796911E-03 -0.333381534399E-03  0.128249914927E-02            

Total linear and angular momentum set to zero

Zero-momentum starting coordinates:                                             
t=   0.00000000000                                                              
 0.150106893028      0.128128831240      0.341320888192     ti                  
 0.600718892429      -3.15077561104       1.19970403967     o                   
 -2.40462407054     -0.184749912047      -2.06443483850     o                   
 -4.11398699343      0.339179114940      -1.77538327408     h                   
-0.903141415767       2.74353115306       2.00604507831     o                   
 -1.38374998294       4.34091892086       2.97995966049     h                   
  2.25533512644      0.234860185281      -2.16890041091     o                   
  3.77575718343     -0.821975201659      -1.59206850083     h                   
  1.75867957186      -4.27821305603      0.478259703439     h                   
  40.0000000000       0.00000000000                                             
ti       -0.978385603674E-04  0.112372713702E-03 -0.488256832840E-04            
o        -0.484936816187E-04  0.299963812672E-04 -0.606519470144E-04            
o         0.168186763667E-03 -0.896097190359E-04  0.520913571962E-04            
h         0.123292095897E-02  0.975193113714E-03  0.451130065974E-03            
o        -0.257190416051E-04 -0.243586140002E-03  0.853713348737E-04            
h         0.800995939501E-03  0.100012969361E-02  0.942430129086E-03            
o        -0.317794010576E-04 -0.202635743881E-03 -0.135512947146E-03            
h         0.586355404919E-03  0.121393967362E-02  0.445082089875E-03            
h         0.104193007190E-02 -0.500286560053E-03  0.141338926505E-02            

 New kinetic energy calc. from velocities:   1.330182000000000E-002
 
Making new file mdlog.1                                                                         
Initializing $log_history: zero records in mdlog.1                                                                         
Writing data for next step ($current) to mdlog.1                                                                         
Making new file mdmaster                                                                        


    2018-03-07 14:29:30.994 

         total cpu-time :   0.06 seconds
         total wall-time :   0.12 seconds

          ******************************************************



    ------------------------------------------------------------------------
         total  cpu-time :   0.07 seconds
         total wall-time :   0.14 seconds
    ------------------------------------------------------------------------

   ****  mdprep : all done  ****


    2018-03-07 14:29:30.995 

mdprep ended normally
md prep done
