
OPTIMIZATION CYCLE 629
Thu Mar  8 02:20:50 PST 2018
 hostname is c-5-31.local

 frog (c-5-31.local) : TURBOMOLE V7.1 ( ) 5 Apr 2016 at 11:29:09
 Copyright (C) 2016 TURBOMOLE GmbH, Karlsruhe


    2018-03-08 02:20:50.558 


 frog (c-5-31.local) : TURBOMOLE V7.1 ( ) 5 Apr 2016 at 11:29:09
 Copyright (C) 2016 TURBOMOLE GmbH, Karlsruhe


    2018-03-08 02:20:50.558 

 
       `--._            A b     I n i t i o           .-
            `.  M o l e c u l a r   D y n a m i c s  /
              \               .-.       .           / 
               \             /   \     / `.        /  
                `-----._    /     `._.'    `--.__.'   
                        `--'                          
 
 

Reading information from mdmaster                                                                        
 
 =========================================
 TDDFT-SURFACE HOPPING switched on
 Tapavicza, Meyer, and Furche,
 Phys. Chem. Chem. Phys. 13 (2011), 20986.
 =========================================
 
 found keyword $gap_threshold; hop is enforced if gap <  0.500000000000000     
Reading log history information from mdmaster                                                                        
Reading input data from mdlog.3                                                                         
Checking for non-default isotopic masses in control                                                                         
 
No constraints requested.
Reading status from mdmaster                                                                        
Reading actions from mdmaster                                                                        
Getting gradients from control                                                                         
 non-adiabatic coupling vector
 -0.114089167493700      -3.605568246056800E-002 -8.742791599803601E-003
  2.312026854714100E-003  3.709152712080200E-003  2.419797435692100E-003
  3.950690965292300E-002  7.293055910690700E-003 -1.685815337697800E-002
 -1.436387452092900E-003  3.879179321029700E-003 -2.899028182555700E-003
  0.189040886104270       9.271043652502300E-002  2.955513656092600E-002
 -0.193207231817790      -7.911951488445300E-002 -2.932163970630600E-002
  4.138158508246200E-002  8.908426013552500E-003  1.263287831777800E-002
  3.855885153342100E-004  3.377347390664800E-004 -1.091617873989100E-003
 -4.471322125360900E-004  1.021390669417100E-003  1.665998168148100E-003
 leap: Read last 2 entries of RUN.dat
 Old state:           0
 New state:           0
 Propagating Coefficients
 
 ==============Surface Hopping Information================
 
 Probability from           1 to           2 : -1.666566076435367E-003
 Random number   0.358347428245251     
 
 COEFF OF STATE           1 = (0.990253932161344,-7.327890067601644E-003)
 COEFF OF STATE           2 = (2.486558736334970E-002,-0.136839886111129)
 
 POPULATION OF STATE           1 =  0.980656548133847     
 POPULATION OF STATE           2 =  1.934345186583103E-002
 SUM OF ALL POPULATIONS =  0.999999999999678     
 
 =========================================================
 
Scaling KE by    1.00021789568    
 
Generating $log data for last completed MD step:                                
t=   25120.0000000                                                              
 0.516918993582E-01  0.158426298863     -0.384122381452E-01 ti                  
 0.564888417639      -2.90439583274       1.97229464142     o                   
 -2.55667213771     -0.539721262506      -2.10428086815     o                   
 -2.86919800758      -2.35101446435      -2.01291149106     h                   
-0.980214149216       2.67321131063       2.08867789571     o                   
 -1.56759107403       5.10375052083      0.733073499265     h                   
  2.81415217574      0.282765634161      -1.73033942497     o                   
  2.61468953400       1.41102063692      -3.15959118924     h                   
  1.87110173929      -3.94417928893       2.67195975590     h                   
  40.0000000000       0.00000000000                                             
ti        0.185904055387E-03 -0.379324326104E-03 -0.225659058904E-03            
o         0.132451071576E-03 -0.317572323032E-03  0.417503972315E-03            
o        -0.526194405535E-03  0.132183987847E-03 -0.286166282025E-03            
h         0.170844337645E-02  0.962666336764E-04 -0.156068558281E-02            
o        -0.256600036350E-03  0.143248621669E-02  0.731961212326E-03            
h        -0.301407950500E-03 -0.559518392293E-02  0.681771787146E-04            
o         0.155576352698E-03  0.170693097333E-03 -0.226004701462E-04            
h        -0.107169499328E-02  0.956873080991E-03  0.292495144538E-03            
h        -0.131635063757E-02  0.635678453735E-04 -0.142070125579E-02            
 0.112017715813      -1151.98217809       0.00000000000                         
 0.406474116142E-01  0.744986474708E-01 -0.859578127849E-01                     
 0.204264893424E-01 -0.528132244755E-01  0.316444686025E-01                     
-0.566653098340E-02  0.551804907770E-02 -0.791634425494E-03                     
 0.315916276119E-02 -0.552991367247E-02  0.455002430114E-02                     
 0.135673755511E-01 -0.956896721539E-01  0.627170578546E-01                     
-0.237813919358E-01  0.978880100274E-01 -0.527813901520E-01                     
-0.328726500521E-01 -0.234007128825E-01  0.329511213777E-01                     
-0.107933960563E-01  0.287389170394E-02  0.482782315952E-02                     
-0.468647023806E-02 -0.334507508817E-02  0.284034206002E-02                     
 

   Time t=   25120.0000000     a.u. (  607.602560000     fs)

   e x e c u t i n g    M D   s t e p   (leapfrog algorithm)

   Number of MD steps left:     871
 
   Time t=   25160.0000000     a.u. (  608.570080000     fs)

 
Provisional $current data:                                                      
t=   25160.0000000                                                              
 0.583832313021E-01  0.141888199588     -0.458634945229E-01 ti                  
 0.569065862168      -2.91420138925       1.98725878302     o                   
 -2.57740904773     -0.534736623469      -2.11568409032     o                   
 -2.80361123288      -2.34234841770      -2.07930101998     h                   
-0.991222457643       2.73576030000       2.11451568294     o                   
 -1.55893884633       4.79470348004      0.781761976474     h                   
  2.82217862525      0.290877122456      -1.73305114412     o                   
  2.58122049176       1.44679301036      -3.15209539292     h                   
  1.82252863485      -3.93872372457       2.61265837048     h                   
  40.0000000000       0.00000000000                                             
ti        0.167301522758E-03 -0.413497524190E-03 -0.186301703294E-03            
o         0.104447490690E-03 -0.245165618594E-03  0.374144295458E-03            
o        -0.518479228426E-03  0.124629551815E-03 -0.285111611536E-03            
h         0.163984799622E-02  0.216674768650E-03 -0.165991903795E-02            
o        -0.275237692317E-03  0.156389508942E-02  0.646015051270E-03            
h         0.216329257164E-03 -0.772701772419E-02  0.121734453561E-02            
o         0.200683098082E-03  0.202809299409E-03 -0.678003641399E-04            
h        -0.836817210472E-03  0.894406763649E-03  0.187415323261E-03            
h        -0.121445990225E-02  0.136403967411E-03 -0.148269614554E-02            
 
    50 energy records for statistics read from mdlog.3                                                                         
       Total Energy (H):
              current value   -1151.87016037    
                    average   -1151.87158188    
         standard deviation   0.198220655841E-01
                      drift   0.433531429007E-04
        jump from last step   0.673802414894E-04
 
     Kinetic Energy (H):
              current value   0.112017715813    
                    average   0.112391345434    
         standard deviation   0.413566846819E-01
                      drift   0.110792576368E-02
 avg. quasi-temperature (K)    3379.72835099    
      number of constraints       0
 
         Pressure (GPa):
              current value    0.00000000000    
                    average    0.00000000000    
 
 
   approx integration error   0.439959018432E-01
 
Estimated integration error by reading last steps from mdlog.3                  
 
Generating $log data for last completed MD step:                                
t=   25120.0000000                                                              
 0.516918993582E-01  0.158426298863     -0.384122381452E-01 ti                  
 0.564888417639      -2.90439583274       1.97229464142     o                   
 -2.55667213771     -0.539721262506      -2.10428086815     o                   
 -2.86919800758      -2.35101446435      -2.01291149106     h                   
-0.980214149216       2.67321131063       2.08867789571     o                   
 -1.56759107403       5.10375052083      0.733073499265     h                   
  2.81415217574      0.282765634161      -1.73033942497     o                   
  2.61468953400       1.41102063692      -3.15959118924     h                   
  1.87110173929      -3.94417928893       2.67195975590     h                   
  40.0000000000       0.00000000000                                             
ti        0.185904055387E-03 -0.379324326104E-03 -0.225659058904E-03            
o         0.132451071576E-03 -0.317572323032E-03  0.417503972315E-03            
o        -0.526194405535E-03  0.132183987847E-03 -0.286166282025E-03            
h         0.170844337645E-02  0.962666336764E-04 -0.156068558281E-02            
o        -0.256600036350E-03  0.143248621669E-02  0.731961212326E-03            
h        -0.301407950500E-03 -0.559518392293E-02  0.681771787146E-04            
o         0.155576352698E-03  0.170693097333E-03 -0.226004701462E-04            
h        -0.107169499328E-02  0.956873080991E-03  0.292495144538E-03            
h        -0.131635063757E-02  0.635678453735E-04 -0.142070125579E-02            
 0.112017715813      -1151.98217809       0.00000000000                         
 0.406474116142E-01  0.744986474708E-01 -0.859578127849E-01                     
 0.204264893424E-01 -0.528132244755E-01  0.316444686025E-01                     
-0.566653098340E-02  0.551804907770E-02 -0.791634425494E-03                     
 0.315916276119E-02 -0.552991367247E-02  0.455002430114E-02                     
 0.135673755511E-01 -0.956896721539E-01  0.627170578546E-01                     
-0.237813919358E-01  0.978880100274E-01 -0.527813901520E-01                     
-0.328726500521E-01 -0.234007128825E-01  0.329511213777E-01                     
-0.107933960563E-01  0.287389170394E-02  0.482782315952E-02                     
-0.468647023806E-02 -0.334507508817E-02  0.284034206002E-02                     
 
Generated $current data for new MD step:                                        
t=   25160.0000000                                                              
 0.583832313021E-01  0.141888199588     -0.458634945229E-01 ti                  
 0.569065862168      -2.91420138925       1.98725878302     o                   
 -2.57740904773     -0.534736623469      -2.11568409032     o                   
 -2.80361123288      -2.34234841770      -2.07930101998     h                   
-0.991222457643       2.73576030000       2.11451568294     o                   
 -1.55893884633       4.79470348004      0.781761976474     h                   
  2.82217862525      0.290877122456      -1.73305114412     o                   
  2.58122049176       1.44679301036      -3.15209539292     h                   
  1.82252863485      -3.93872372457       2.61265837048     h                   
  40.0000000000       0.00000000000                                             
ti        0.167301522758E-03 -0.413497524190E-03 -0.186301703294E-03            
o         0.104447490690E-03 -0.245165618594E-03  0.374144295458E-03            
o        -0.518479228426E-03  0.124629551815E-03 -0.285111611536E-03            
h         0.163984799622E-02  0.216674768650E-03 -0.165991903795E-02            
o        -0.275237692317E-03  0.156389508942E-02  0.646015051270E-03            
h         0.216329257164E-03 -0.772701772419E-02  0.121734453561E-02            
o         0.200683098082E-03  0.202809299409E-03 -0.678003641399E-04            
h        -0.836817210472E-03  0.894406763649E-03  0.187415323261E-03            
h        -0.121445990225E-02  0.136403967411E-03 -0.148269614554E-02            
 
Logging MD run data ($log) to file mdlog.3                                                                         
Writing data for next step ($current) to mdlog.3                                                                         

    2018-03-08 02:20:52.265 

         total cpu-time :   1.71 seconds
         total wall-time :   1.71 seconds

          ******************************************************



    ------------------------------------------------------------------------
         total  cpu-time :   1.71 seconds
         total wall-time :   1.71 seconds
    ------------------------------------------------------------------------

   ****  frog : all done  ****


    2018-03-08 02:20:52.265 

 operating system is UNIX !
 hostname is c-5-31.local

 ridft (c-5-31.local) : TURBOMOLE V7.1 ( ) 5 Apr 2016 at 11:29:09
 Copyright (C) 2016 TURBOMOLE GmbH, Karlsruhe


    2018-03-08 02:20:52.664 



                                  r i d f t

                        DFT program with RI approximation 
                                for coulomb part 




                                                 
                                 References:     
                                                 
          TURBOMOLE:                             
              R. Ahlrichs, M. Baer, M. Haeser, H. Horn, and
              C. Koelmel
              Electronic structure calculations on workstation
              computers: the program system TURBOMOLE
              Chem. Phys. Lett. 162: 165 (1989)
          Density Functional:                              
              O. Treutler and R. Ahlrichs                      
              Efficient Molecular Numerical Integration Schemes
              J. Chem. Phys. 102: 346 (1995)                   
          Parallel Version:                                
              Performance of parallel TURBOMOLE for Density    
              Functional Calculations                          
              M. v. Arnim and R. Ahlrichs                      
              J. Comp. Chem. 19: 1746 (1998)                   
          RI-J Method:                                     
              Auxiliary Basis Sets to approximate Coulomb      
              Potentials                                       
              Chem. Phys. Lett. 240: 283 (1995)                
              K. Eichkorn, O. Treutler, H. Oehm, M. Haeser     
              and R. Ahlrichs                                  
              Chem. Phys. Lett. 242: 652 (1995)                
                                                           
              Auxiliary Basis Sets for Main Row Atoms and their
              Use to approximate Coulomb Potentials            
              K. Eichkorn, F. Weigend, O. Treutler and         
              R. Ahlrichs                                      
              Theo. Chem. Acc. 97: 119 (1997)                   
                                                           
              Accurate Coulomb-fitting basis sets for H to Rn 
              F. Weigend                                        
              Phys. Chem. Chem. Phys. 8: 1057 (2006)            
                                                           
          Multipole accelerated RI-J (MARI-J):             
              Fast evaluation of the Coulomb potential for     
              electron densities using multipole accelerated   
              resolution of identity approximation             
              M. Sierka, A. Hogekamp and R. Ahlrichs           
              J. Chem. Phys. 118: 9136 (2003)                  
          RI-JK Method:                                     
              A fully direct RI-HF algorithm: Implementation,
              optimised auxiliary basis sets, demonstration of
              accuracy and efficiency                         
              F. Weigend                                      
              Phys. Chem. Chem. Phys. 4: 4285 (2002)           
          Two-component HF and DFT with spin-orbit coupling:  
              Self-consistent treatment of spin-orbit         
              interactions with efficient Hartree-Fock and    
              density functional methods                      
              M. K. Armbruster, F. Weigend, C. van Wüllen and 
              W. Klopper                                      
              Phys. Chem. Chem. Phys. 10: 1748 (2008)         
          Relativistic all-electron 2c calculations           
              An efficient implementation of two-component    
              relativistic exact-decoupling methods for large 
              molecules                                       
              D. Peng, N. Middendorf, F. Weigend, M. Reiher   
              J. Chem. Phys. 138, 184105 (2013)               
                                         


 


              +--------------------------------------------------+
              |      general information about current run       |
              +--------------------------------------------------+

 

 DENSITY CONVERGENCE CHECK SWITCHED ON !
 SCF CONVERGENCE IF RMS(delta[D]) <     0.1000000000E-06

 PBE0 hybrid functional
 exchange:    3/4 (LDA+PBE) + 1/4 HF
 correlation: LDA (PW) + PBE
 A Hybrid-DFT calculation using the RI-J approximation will be carried out.
 Allocatable memory for RI due to $ricore (MB):         500


              +--------------------------------------------------+
              | Atomic coordinate, charge and isotop information |
              +--------------------------------------------------+

                    atomic coordinates            atom    charge  isotop
          0.05838323    0.14188820   -0.04586349    ti    22.000     0
          0.56906586   -2.91420139    1.98725878    o      8.000     0
         -2.57740905   -0.53473662   -2.11568409    o      8.000     0
         -2.80361123   -2.34234842   -2.07930102    h      1.000     0
         -0.99122246    2.73576030    2.11451568    o      8.000     0
         -1.55893885    4.79470348    0.78176198    h      1.000     0
          2.82217863    0.29087712   -1.73305114    o      8.000     0
          2.58122049    1.44679301   -3.15209539    h      1.000     0
          1.82252863   -3.93872372    2.61265837    h      1.000     0
 
       center of nuclear mass  :   -0.00000001   -0.00000002   -0.00000002
       center of nuclear charge:   -0.00161148   -0.00511103   -0.01416654

              +--------------------------------------------------+
              |               basis set information              |
              +--------------------------------------------------+

              we will work with the 1s 3p 5d 7f 9g ... basis set
              ...i.e. with spherical basis functions...

   type   atoms  prim   cont   basis
   ---------------------------------------------------------------------------
    ti       1     73     31   def2-SVP   [5s3p2d1f|14s9p5d1f]
    o        4     24     14   def2-SVP   [3s2p1d|7s4p1d]
    h        4      7      5   def2-SVP   [2s1p|4s1p]
   ---------------------------------------------------------------------------
   total:    9    197    107
   ---------------------------------------------------------------------------

   total number of primitive shells          :   46
   total number of contracted shells         :   47
   total number of cartesian basis functions :  116
   total number of SCF-basis functions       :  107


 integral neglect threshold       :  0.29E-10
 integral storage threshold THIZE :  0.10E-04
 integral storage threshold THIME :         5

 RI-J AUXILIARY BASIS SET information:

              we will work with the 1s 3p 5d 7f 9g ... basis set
              ...i.e. with spherical basis functions...

   type   atoms  prim   cont   basis
   ---------------------------------------------------------------------------
    ti       1    107     89   def2-SVP   [8s5p5d2f3g|19s5p5d3f3g]
    o        4     70     49   def2-SVP   [6s4p3d1f1g|12s5p4d2f1g]
    h        4     16     11   def2-SVP   [3s1p1d|5s2p1d]
   ---------------------------------------------------------------------------
   total:    9    451    329
   ---------------------------------------------------------------------------

   total number of primitive shells          :   67
   total number of contracted shells         :  103
   total number of cartesian basis functions :  410
   total number of SCF-basis functions       :  329


 symmetry group of the molecule :   c1 

 the group has the following generators :
   c1(z)

    1 symmetry operations found

 there are 1 real representations :   a   

 maximum number of shells which are related by symmetry :  1


    mo occupation :
   irrep   mo's   occupied
    a      107       29
 
 number of basis functions   :          107
 number of occupied orbitals :           29
 
  
           ------------------
           density functional
           ------------------
 PBE0 hybrid functional
 exchange:    3/4 (LDA+PBE) + 1/4 HF
 correlation: LDA (PW) + PBE
 iterations will be done with small grid
  
 spherical integration : Lebedev's spherical grid
 spherical gridsize    :           3
    i.e. gridpoints    :         302
 value for diffuse not defined
 radial integration    : Chebyshev 2nd kind (scaling 3)
 radial gridsize       :           3
 integration cells     :           9
 partition function    : becke
 partition sharpness   :           3
  

 biggest AO integral is expected to be    13.493451081
  
           ------------------------
               RI-J - INFORMATION
           ------------------------
 Contributions to RI integral batches: 
  neglected integral batches:          69
  direct contribution:                  0
  memory contribution:        1059
 Memory core needed for (P|Q) and Cholesky      1 MByte
 Memory core minimum needed except of (P|Q)     1 MByte
 Total minimum memory core needed (sum)         1 MByte
  
 ****************************************
 Memory allocated for RI-J    22 MByte
 ****************************************
                                            

          ------------------------
          nuclear repulsion energy  :   322.027148752    
          ------------------------

 
          -----------------
          -S,T+V- integrals
          -----------------

 1e-integrals will be neglected if expon. factor < 0.288100E-11
 
   Difference densities algorithm switched on.
   The maximal number of linear combinations of
   difference densities is          20 .

 DIIS switched on: error vector is FDS-SDF
 Max. Iterations for DIIS is     :   4
 DIIS matrix (see manual) 
    Scaling factor of diagonals  :  1.200
    threshold for scaling factor :  0.000

 scf convergence criterion : increment of total energy < .1000000D-06
                  and increment of one-electron energy < .1000000D-03

  MOs are in ASCII format !


 automatic virtual orbital shift switched on 
      shift if e(lumo)-e(homo) < 0.10000000    


 reading orbital data $scfmo  from file mos
 orbital characterization : scfconv=7

 DSCF restart information will be dumped onto file mos


 Starting SCF iterations

          Overall gridpoints after grid construction =         13505

 ITERATION  ENERGY          1e-ENERGY        2e-ENERGY     RMS[dD(SAO)]   TOL
   1  -1152.0130900546    -2222.2494803     748.20924147    0.000D+00 0.287D-10
                            Exc = -58.4849554883     Coul =  825.465509543    
                            exK = -18.7713125800    
                              N = 58.001117311    
                            current damping = 0.700
 
          max. resid. norm for Fia-block=  2.989D-02 for orbital     21a         
          max. resid. fock norm         =  1.340D-01 for orbital    101a         

 ITERATION  ENERGY          1e-ENERGY        2e-ENERGY     RMS[dD(SAO)]   TOL
   2  -1152.0167014253    -2222.3241466     748.28029640    0.967D-03 0.182D-10
                            Exc = -58.4983206339      Eck =  806.778617035    
                              N = 58.001105291    
                            current damping = 0.650
 
          Norm of current diis error: 0.59323E-01
          max. resid. norm for Fia-block=  1.325D-02 for orbital     21a         
          max. resid. fock norm         =  6.174D-02 for orbital    103a         

 ITERATION  ENERGY          1e-ENERGY        2e-ENERGY     RMS[dD(SAO)]   TOL
   3  -1152.0172590319    -2222.4506547     748.40624689    0.613D-03 0.143D-10
                            Exc = -58.4901646498      Eck =  806.896411536    
                              N = 58.001107438    
                            current damping = 0.500
 
          Norm of current diis error: 0.51641E-01
          max. resid. norm for Fia-block=  7.460D-03 for orbital     21a         
          max. resid. fock norm         =  1.759D-02 for orbital     82a         

 ITERATION  ENERGY          1e-ENERGY        2e-ENERGY     RMS[dD(SAO)]   TOL
   4  -1152.0176897317    -2222.3424625     748.29762398    0.321D-03 0.130D-10
                            Exc = -58.4974699573      Eck =  806.795093942    
                              N = 58.001104941    
                            current damping = 0.550
 
          Norm of current diis error: 0.13848E-01
          max. resid. norm for Fia-block=  2.373D-03 for orbital     21a         
          max. resid. fock norm         =  5.743D-03 for orbital     82a         

 ITERATION  ENERGY          1e-ENERGY        2e-ENERGY     RMS[dD(SAO)]   TOL
   5  -1152.0177163341    -2222.4432474     748.39838232    0.135D-03 0.125D-10
                            Exc = -58.4958371088      Eck =  806.894219426    
                              N = 58.001103952    
                            current damping = 0.600
 
          Norm of current diis error: 0.11390E-01
          max. resid. norm for Fia-block=  9.619D-04 for orbital     21a         
          max. resid. fock norm         =  2.043D-03 for orbital     76a         
          mo-orthogonalization: Cholesky decomposition

 ITERATION  ENERGY          1e-ENERGY        2e-ENERGY     RMS[dD(SAO)]   TOL
   6  -1152.0177352159    -2222.4050408     748.36015685    0.570D-04 0.120D-10
                            Exc = -58.4965565175      Eck =  806.856713369    
                              N = 58.001104200    
                            current damping = 0.650
 
          Norm of current diis error: 0.23579E-02
          max. resid. norm for Fia-block=  3.992D-04 for orbital     21a         
          max. resid. fock norm         =  7.681D-04 for orbital     82a         

 ITERATION  ENERGY          1e-ENERGY        2e-ENERGY     RMS[dD(SAO)]   TOL
   7  -1152.0177362782    -2222.4016065     748.35672143    0.199D-04 0.117D-10
                            Exc = -58.4966198099      Eck =  806.853341236    
                              N = 58.001104264    
                            current damping = 0.500
 
          Norm of current diis error: 0.13186E-02
          max. resid. norm for Fia-block=  1.750D-04 for orbital     20a         
          max. resid. fock norm         =  3.149D-04 for orbital     63a         

 ITERATION  ENERGY          1e-ENERGY        2e-ENERGY     RMS[dD(SAO)]   TOL
   8  -1152.0177365428    -2222.3972875     748.35240224    0.118D-04 0.114D-10
                            Exc = -58.4967794555      Eck =  806.849181691    
                              N = 58.001104192    
                            current damping = 0.350
 
          Norm of current diis error: 0.85608E-03
          max. resid. norm for Fia-block=  8.983D-05 for orbital     25a         
          max. resid. fock norm         =  1.282D-04 for orbital     76a         

 ITERATION  ENERGY          1e-ENERGY        2e-ENERGY     RMS[dD(SAO)]   TOL
   9  -1152.0177366213    -2222.4011856     748.35630023    0.742D-05 0.111D-10
                            Exc = -58.4966152465      Eck =  806.852915479    
                              N = 58.001104230    
                            current damping = 0.400
 
          Norm of current diis error: 0.59437E-03
          max. resid. norm for Fia-block=  6.208D-05 for orbital     21a         
          max. resid. fock norm         =  6.703D-05 for orbital     21a         

 ITERATION  ENERGY          1e-ENERGY        2e-ENERGY     RMS[dD(SAO)]   TOL
  10  -1152.0177366713    -2222.4006211     748.35573564    0.317D-05 0.107D-10
                            Exc = -58.4966823978      Eck =  806.852418043    
                              N = 58.001104211    
                            current damping = 0.450
 
          Norm of current diis error: 0.17203E-03
          max. resid. norm for Fia-block=  2.197D-05 for orbital     22a         
          max. resid. fock norm         =  2.621D-05 for orbital     26a         
          mo-orthogonalization: Cholesky decomposition

 ITERATION  ENERGY          1e-ENERGY        2e-ENERGY     RMS[dD(SAO)]   TOL
  11  -1152.0177366723    -2222.3991378     748.35425239    0.177D-05 0.103D-10
                            Exc = -58.4966961815      Eck =  806.850948571    
                              N = 58.001104228    
                            current damping = 0.300
 
          Norm of current diis error: 0.18421E-03
          max. resid. norm for Fia-block=  1.061D-05 for orbital     22a         
          max. resid. fock norm         =  1.297D-05 for orbital     22a         

 ITERATION  ENERGY          1e-ENERGY        2e-ENERGY     RMS[dD(SAO)]   TOL
  12  -1152.0177366767    -2222.3997409     748.35485546    0.889D-06 0.101D-10
                            Exc = -58.4966897551      Eck =  806.851545215    
                              N = 58.001104219    
                            current damping = 0.350
 
          Norm of current diis error: 0.41803E-04
          max. resid. norm for Fia-block=  4.453D-06 for orbital     29a         
          max. resid. fock norm         =  6.375D-06 for orbital     27a         

 ITERATION  ENERGY          1e-ENERGY        2e-ENERGY     RMS[dD(SAO)]   TOL
  13  -1152.0177366772    -2222.3999415     748.35505603    0.364D-06 0.982D-11
                            Exc = -58.4966866079      Eck =  806.851742638    
                              N = 58.001104220    
                            current damping = 0.200
 
          Norm of current diis error: 0.24028E-04
          max. resid. norm for Fia-block=  2.089D-06 for orbital     21a         
          max. resid. fock norm         =  2.346D-06 for orbital     21a         

 ENERGY & DENSITY CONVERGED !

          Overall gridpoints after grid construction =         48582

 ITERATION  ENERGY          1e-ENERGY        2e-ENERGY     RMS[dD(SAO)]   TOL
  14  -1152.0169122292    -2222.3998665     748.35580557    0.206D-06 0.951D-11
                            Exc = -58.4958663276      Eck =  806.851671894    
                              N = 57.999979391    
                            current damping = 0.250
 
          Norm of current diis error: 0.14524E-04
          max. resid. norm for Fia-block=  1.095D-06 for orbital     25a         
          max. resid. fock norm         =  1.589D-06 for orbital     25a         

 End of SCF iterations

   convergence criteria satisfied after   14 iterations


                  ------------------------------------------ 
                 |  total energy      =  -1152.01691222923  |
                  ------------------------------------------ 
                 :  kinetic energy    =   1148.20401543573  :
                 :  potential energy  =  -2300.22092766495  :
                 :  virial theorem    =      1.99669024235  :
                 :  wavefunction norm =      1.00000000000  :
                  .......................................... 


 orbitals $scfmo  will be written to file mos

    irrep                 25a         26a         27a         28a         29a   
 eigenvalues H         -0.34635    -0.34298    -0.31076    -0.30835    -0.29993
            eV          -9.4247     -9.3330     -8.4564     -8.3907     -8.1614
 occupation              2.0000      2.0000      2.0000      2.0000      2.0000 

    irrep                 30a         31a         32a         33a         34a   
 eigenvalues H         -0.06671    -0.05914    -0.03884    -0.03082     0.00313
            eV          -1.8152     -1.6092     -1.0568     -0.8387      0.0852
 
 
 
 
 ==============================================================================
                           electrostatic moments
 ==============================================================================

 reference point for electrostatic moments:    0.00000   0.00000   0.00000

 
              nuc           elec       ->  total
 ------------------------------------------------------------------------------
                          charge      
 ------------------------------------------------------------------------------
          58.000000     -58.000000       0.000000
 
 ------------------------------------------------------------------------------
                       dipole moment  
 ------------------------------------------------------------------------------
   x      -0.093466       0.461107       0.367641
   y      -0.296440       0.701333       0.404893
   z      -0.821659      -0.154306      -0.975965
 
   | dipole moment | =     1.1188 a.u. =     2.8436 debye 
 
 ------------------------------------------------------------------------------
                     quadrupole moment
 ------------------------------------------------------------------------------
  xx     147.662525    -178.506812     -30.844286
  yy     177.305497    -199.932748     -22.627251
  zz     148.942286    -179.080486     -30.138200
  xy     -21.537133      21.565573       0.028439
  xz      -2.047251       2.683693       0.636441
  yz      -1.409253      -1.620990      -3.030243
 
     1/3  trace=     -27.869912
     anisotropy=       9.538397
 
 ==============================================================================
 


    ------------------------------------------------------------------------
         total  cpu-time :  14.09 seconds
         total wall-time :  14.10 seconds
    ------------------------------------------------------------------------

   ****  ridft : all done  ****


    2018-03-08 02:21:06.413 

fine, there is no data group "$actual step"
next step = rdgrad
 hostname is c-5-31.local
           Doing BLAS/Lapack in the master proc. with  8 CPUs.
           SMPCPUS    set: Shared-memory Parallelization with   8 CPUs.

           SMP Parallelization Reference:
           C. van Wullen, J. Comput. Chem. 32 (2011) 1195--1201

 egrad (c-5-31.local) : TURBOMOLE V7.1 ( ) 5 Apr 2016 at 11:29:09
 Copyright (C) 2016 TURBOMOLE GmbH, Karlsruhe


    2018-03-08 02:21:06.910 




                               e g r a d

                       quantum chemistry group
                       university of karlsruhe
                               germany


             integral direct evaluation of excited state
                     and polarizability gradients
                 and first-order nonadiabatic couplings



          references (see also programs escf, dscf and ridft) 

          review 
          F. Furche and D. Rappoport,  
          "Density functional methods for excited states: 
          equilibrium structure and electronic spectra",
          ch. III of "Computational Photochemistry", ed. by 
          M. Olivucci, vol. 16 of "Theoretical and Computational 
          Chemistry", Elsevier, Amsterdam, 2005.

          RI-J method 
          D. Rappoport and F. Furche, 
          J. Chem. Phys. 122 (2005), 064105.

          Lagrangian method, implementation, benchmarks 
          F. Furche and R. Ahlrichs,
          J. Chem. Phys. 117 (2002), 7433;
          J. Chem. Phys. 121 (2004), 12772 (E).

          Polarizability derivatives, Raman intensities 
          D. Rappoport and F. Furche, 
          J. Chem. Phys. 126 (2007), 201104.

          First-order nonadiabatic couplings 
          R. Send and F. Furche, 
          J. Chem. Phys. 132 (2010), 044107.
                                     




              +--------------------------------------------------+
              | Atomic coordinate, charge and isotop information |
              +--------------------------------------------------+

                    atomic coordinates            atom    charge  isotop
          0.05838323    0.14188820   -0.04586349    ti    22.000     0
          0.56906586   -2.91420139    1.98725878    o      8.000     0
         -2.57740905   -0.53473662   -2.11568409    o      8.000     0
         -2.80361123   -2.34234842   -2.07930102    h      1.000     0
         -0.99122246    2.73576030    2.11451568    o      8.000     0
         -1.55893885    4.79470348    0.78176198    h      1.000     0
          2.82217863    0.29087712   -1.73305114    o      8.000     0
          2.58122049    1.44679301   -3.15209539    h      1.000     0
          1.82252863   -3.93872372    2.61265837    h      1.000     0
 
       center of nuclear mass  :   -0.00000001   -0.00000002   -0.00000002
       center of nuclear charge:   -0.00161148   -0.00511103   -0.01416654

              +--------------------------------------------------+
              |               basis set information              |
              +--------------------------------------------------+

              we will work with the 1s 3p 5d 7f 9g ... basis set
              ...i.e. with spherical basis functions...

   type   atoms  prim   cont   basis
   ---------------------------------------------------------------------------
    ti       1     73     31   def2-SVP   [5s3p2d1f|14s9p5d1f]
    o        4     24     14   def2-SVP   [3s2p1d|7s4p1d]
    h        4      7      5   def2-SVP   [2s1p|4s1p]
   ---------------------------------------------------------------------------
   total:    9    197    107
   ---------------------------------------------------------------------------

   total number of primitive shells          :   46
   total number of contracted shells         :   47
   total number of cartesian basis functions :  116
   total number of SCF-basis functions       :  107


 residuum convergence criterium   :  0.10E-04


 integral neglect threshold       :  0.29E-10
 integral storage threshold THIZE :  0.10E-04
 integral storage threshold THIME :         5

 
             FOUND RI-J FLAG !
 
  
 AUXILIARY BASIS SET information:

              we will work with the 1s 3p 5d 7f 9g ... basis set
              ...i.e. with spherical basis functions...

   type   atoms  prim   cont   basis
   ---------------------------------------------------------------------------
    ti       1    107     89   def2-SVP   [8s5p5d2f3g|19s5p5d3f3g]
    o        4     70     49   def2-SVP   [6s4p3d1f1g|12s5p4d2f1g]
    h        4     16     11   def2-SVP   [3s1p1d|5s2p1d]
   ---------------------------------------------------------------------------
   total:    9    451    329
   ---------------------------------------------------------------------------

   total number of primitive shells          :   67
   total number of contracted shells         :  103
   total number of cartesian basis functions :  410
   total number of SCF-basis functions       :  329

 RPA SINGLET-EXCITATION-CALCULATION 
 
             FOUND DFT-FLAG !
 
 
 FOUND Nonadiabatic Coupling-FLAG !
 Note: the sign convention for NACME changed
 such that <0|d/dx|n> is now computed.

 symmetry group of the molecule :   c1 

 the group has the following generators :
   c1(z)

    1 symmetry operations found

 there are 1 real representations :   a   

 maximum number of shells which are related by symmetry :  1

 IRREP of excited state :   a   
 

 determining totally symmetric integral contributions 
    - equivalent to irreducible tensor elements - 
 which can be formed within each triple of representations :

             representation triple      contributions

              a     a     a               1

    mo occupation :
   irrep   mo's   occupied
    a      107       29
 
 number of basis functions   :          107
 number of occupied orbitals :           29
 
  
           ------------------
           density functional
           ------------------
 PBE0 hybrid functional
 exchange:    3/4 (LDA+PBE) + 1/4 HF
 correlation: LDA (PW) + PBE
 iterations will be done with small grid
  
 spherical integration : Lebedev's spherical grid
 spherical gridsize    :           3
    i.e. gridpoints    :         302
 value for diffuse not defined
 radial integration    : Chebyshev 2nd kind (scaling 3)
 radial gridsize       :           3
 integration cells     :           9
 partition function    : becke
 partition sharpness   :           3
  
 
 Derivatives of quadrature weights will be included
 
  
           ----------------------
               RI - INFORMATION
           ----------------------

 biggest AO integral is expected to be    13.493451081

 Threshold for integral neglect (rithr2):   0.29E-10
 Threshold for integral neglect (rithr1):   0.29E-10

 Contributions to RI integral batches: 
  neglected integral batches:          65
  direct contribution:                  0
  memory contribution:        1063
 Core memory available (ricore)            500 MiB
 Core memory needed for (P|Q) and Cholesky 1 MiB
 Core memory used for integrals            21 MiB
  
 ****************************************
 Memory allocated for RIDFT 22 MiB
 ****************************************
                                            
  MOs are in ASCII format !


 reading orbital data $scfmo  from file mos
 orbital characterization : scfconv=7
 preparing numerical integration ....
          Overall gridpoints after grid construction =         13505
 Ordering of quadrature gridpoints disabled.

 Calculating ground state density on molecular grid

 Integral of ground state density: N =   58.00110421914993    



 number of non-frozen orbitals          :   107
 number of non-frozen occupied orbitals :    29



                        -------------------
                         excitation vector 
                        -------------------


 dimension of super-tensorspace: 2

          IRREP   tensor space dimension   number of roots

           a              2262                   1

 maximum number of Davidson iterations set to   25


 machine precision: 2.22D-16


 logfile sing_a    exists already

 found      1 converged vectors on sing_a   
 read       1 vectors from logfile sing_a   



                       Nonorthonormal Krylov Space Iteration


 total number of roots to be determined:   1


 maximum core memory set to   500 MB,
 corresponding to     2317 vectors in CAO basis


 maximum number of simultaneously treated vectors (including degeneracy):        1


 Iteration IRREP Converged      Max. Euclidean
                 roots          residual norm

    1       a        0        8.277341714743364D-02
 
    2       a        0        6.203635833536086D-02
 
    3       a        0        3.122593772747829D-02
 
    4       a        0        2.497783803301237D-02
 
    5       a        0        2.038169533017023D-02
 
    6       a        0        2.685722926450704D-02
 
    7       a        0        2.506332962611156D-02
 
    8       a        0        1.941502497916426D-02
 
    9       a        0        1.249266491580195D-02
 
   10       a        0        9.103743731082699D-03
 
   11       a        0        4.060425581897288D-03
 
   12       a        0        3.397946899093228D-03
 
   13       a        0        2.898048685250437D-03
 
   14       a        0        6.743227488954157D-03
 
   15       a        0        1.895756714957110D-02
 
   16       a        0        8.728003240636660D-03
 
   17       a        0        4.549858538999987D-03
 
   18       a        0        2.357666323580929D-03
 
   19       a        0        1.214087115295785D-03
 
   20       a        0        6.082958093833199D-04
 
   21       a        0        3.777754566972534D-04
 
   22       a        0        3.770767392350147D-04
 
   23       a        0        2.762506886453834D-04
 
   24       a        0        1.655050918514043D-04
 
   25       a        0        1.237675502316494D-04
 


 Warning! No convergence within  25 iterations.
 Unless you have specified a very low $escfiterlimit/$forceiterlimit, 
 this is a reason to worry!



 IRREP   Vector     Eigenvalue           Euclidean residual norm

  a         1    1.719977747992829D-01    1.237675502316494D-04
 

 Deallocation failure for file unit arrays in <egrad>


========================
 internal module stack: 
------------------------
    egrad
========================

  abnormal termination
 egrad ended abnormally
error in gradient step (1)
