
Sun Jan 28 15:10:10 PST 2018
jobex WAS CALLED AS: jobex -ri -c 400 -outfile opt.out
AN OPTIMIZATION WITH MAX. 400 CYCLES WILL BE PERFORMED
CONVERGENCY CRITERION FOR TOTAL SCF-ENERGY IS 10**(-6)
CONVERGENCY CRITERION FOR MAXIMUM NORM OF SCF-ENERGY GRADIENT IS 10**(-3)
CONVERGENCY CRITERION FOR MAXIMUM NORM OF BASIS SET GRADIENT IS 10**(-3)
PROCEDURE WILL START WITH A dscf like STEP
LOAD MODULES WILL BE TAKEN FROM DIRECTORY /beegfs/modfac/apps/TURBOMOLE/7.2-official/bin/em64t-unknown-linux-gnu_smp
DSCF  = /beegfs/modfac/apps/TURBOMOLE/7.2-official/bin/em64t-unknown-linux-gnu_smp/ridft
GRAD  = /beegfs/modfac/apps/TURBOMOLE/7.2-official/bin/em64t-unknown-linux-gnu_smp/rdgrad
STATPT = /beegfs/modfac/apps/TURBOMOLE/7.2-official/bin/em64t-unknown-linux-gnu_smp/statpt

Found old shared memory segments from previous Turbomole job 7214
... which could not be removed since they belong to user:
lcantumo
Found old shared memory segments from previous Turbomole job 23365
... they have been removed now
Found old shared memory segments from previous Turbomole job 23533
... they have been removed now
Found old shared memory segments from previous Turbomole job 30758
... which could not be removed since they belong to user:
sreeganb
STARTING ridft ON 8 PROCESSORS!
RUNNING PROGRAM /beegfs/modfac/apps/TURBOMOLE/7.2-official/bin/em64t-unknown-linux-gnu_smp/ridft_mpi.
PLEASE WAIT UNTIL ridft HAS FINISHED.
 c-8-253.local ( 1 ) 
 c-8-253.local ( 2 ) 
 c-8-253.local ( 3 ) 
 c-8-253.local ( 4 ) 
 c-8-253.local ( 5 ) 
 c-8-253.local ( 6 ) 
 c-8-253.local ( 7 ) 
 this is node-proc. number 0 running on node c-8-253.local
 the total number of node-proc. spawned is   8
 GA version: using    8 (total) on    1 nhosts.
 operating system is UNIX !

 ridft (c-8-253.local) : TURBOMOLE V7.2 ( 21285 ) 30 Jun 2017 at 12:03:23
 Copyright (C) 2017 TURBOMOLE GmbH, Karlsruhe


    2018-01-28 15:10:42.661 



                                  r i d f t

                        DFT program with RI approximation 
                                for coulomb part 




                                                 
                                 References:     
                                                 
          TURBOMOLE:                             
              R. Ahlrichs, M. Baer, M. Haeser, H. Horn, and
              C. Koelmel
              Electronic structure calculations on workstation
              computers: the program system TURBOMOLE
              Chem. Phys. Lett. 162: 165 (1989)
          Density Functional:                              
              O. Treutler and R. Ahlrichs                      
              Efficient Molecular Numerical Integration Schemes
              J. Chem. Phys. 102: 346 (1995)                   
          Parallel Version:                                
              Performance of parallel TURBOMOLE for Density    
              Functional Calculations                          
              M. v. Arnim and R. Ahlrichs                      
              J. Comp. Chem. 19: 1746 (1998)                   
          RI-J Method:                                     
              Auxiliary Basis Sets to approximate Coulomb      
              Potentials                                       
              Chem. Phys. Lett. 240: 283 (1995)                
              K. Eichkorn, O. Treutler, H. Oehm, M. Haeser     
              and R. Ahlrichs                                  
              Chem. Phys. Lett. 242: 652 (1995)                
                                                           
              Auxiliary Basis Sets for Main Row Atoms and their
              Use to approximate Coulomb Potentials            
              K. Eichkorn, F. Weigend, O. Treutler and         
              R. Ahlrichs                                      
              Theo. Chem. Acc. 97: 119 (1997)                   
                                                           
              Accurate Coulomb-fitting basis sets for H to Rn 
              F. Weigend                                        
              Phys. Chem. Chem. Phys. 8: 1057 (2006)            
                                                           
          Multipole accelerated RI-J (MARI-J):             
              Fast evaluation of the Coulomb potential for     
              electron densities using multipole accelerated   
              resolution of identity approximation             
              M. Sierka, A. Hogekamp and R. Ahlrichs           
              J. Chem. Phys. 118: 9136 (2003)                  
          RI-JK Method:                                     
              A fully direct RI-HF algorithm: Implementation,
              optimised auxiliary basis sets, demonstration of
              accuracy and efficiency                         
              F. Weigend                                      
              Phys. Chem. Chem. Phys. 4: 4285 (2002)           
          Two-component HF and DFT with spin-orbit coupling:  
              Self-consistent treatment of spin-orbit         
              interactions with efficient Hartree-Fock and    
              density functional methods                      
              M. K. Armbruster, F. Weigend, C. van Wüllen and 
              W. Klopper                                      
              Phys. Chem. Chem. Phys. 10: 1748 (2008)         
          Relativistic all-electron 2c calculations           
              An efficient implementation of two-component    
              relativistic exact-decoupling methods for large 
              molecules                                       
              D. Peng, N. Middendorf, F. Weigend, M. Reiher   
              J. Chem. Phys. 138, 184105 (2013)               
                                         


 ********** GlobalArray OPTION SETTINGS : **********
 *****************************************************


              +--------------------------------------------------+
              |      general information about current run       |
              +--------------------------------------------------+

 

 SCF run will be profiled !

 TPSS global hybrid functional
 exchange:    9/10 (LDA+TPSS) + 1/10 HF
 correlation: LDA (PW) + TPSS
 A Hybrid-DFT calculation using the RI-J approximation will be carried out.
 Allocatable memory for RI due to $ricore (MB):                 10000


              +--------------------------------------------------+
              | Atomic coordinate, charge and isotop information |
              +--------------------------------------------------+

                    atomic coordinates            atom    charge  isotop
         -1.01101183    0.17869832   -3.12144616    y     39.000     0
         -2.05664946   -1.06202585    0.61990424    h      1.000     0
         -3.29150588    3.30961445   -6.24040318    c      6.000     0
         -5.20761104    2.54032678   -4.50664935    c      6.000     0
         -4.59511570    3.59277979   -2.11631857    c      6.000     0
         -2.31961696    4.98370599   -2.33606700    c      6.000     0
         -1.47924991    4.82330516   -4.90890821    c      6.000     0
         -0.76182564   -4.80031411   -3.95860644    c      6.000     0
          1.74772449   -3.88760622   -4.25896250    c      6.000     0
          1.80244915   -2.27891011   -6.42971283    c      6.000     0
         -0.68822983   -2.21741249   -7.46434607    c      6.000     0
         -2.29803327   -3.76821379   -5.93043696    c      6.000     0
          1.06606966   -0.16163812    3.09667033    y     39.000     0
          2.11320353    1.09253829   -0.64307910    h      1.000     0
          3.19527567   -3.34714057    6.29921560    c      6.000     0
          5.16084793   -2.58550868    4.62342201    c      6.000     0
          4.64495616   -3.64237930    2.19124128    c      6.000     0
          2.35134466   -4.97659066    2.34276278    c      6.000     0
          1.44200486   -4.77935599    4.93045928    c      6.000     0
          0.83027360    4.80758993    3.89989838    c      6.000     0
         -1.71068160    3.90386762    4.18071832    c      6.000     0
         -1.79167870    2.32181212    6.33918790    c      6.000     0
          0.69736176    2.25335876    7.42701260    c      6.000     0
          2.32007847    3.81376026    5.88238718    c      6.000     0
         -1.41376758   -6.06500882   -2.46078029    h      1.000     0
          3.35953748   -4.34554708   -3.06056240    h      1.000     0
          3.46967064   -1.33419343   -7.20253254    h      1.000     0
         -1.25977207   -1.19421030   -9.16456407    h      1.000     0
          5.79246945   -3.41362184    0.49592131    h      1.000     0
          6.81334629   -1.45605590    5.12979291    h      1.000     0
         -3.47940046    1.37330222    7.10929604    h      1.000     0
          1.51810512    6.06139623    2.43826653    h      1.000     0
         -3.30009752    4.35667377    2.99861407    h      1.000     0
          1.25053636    1.23729540    9.13830151    h      1.000     0
         -6.86411190    1.38657878   -4.94280355    h      1.000     0
         -1.37947223    6.01255861   -0.81728992    h      1.000     0
         -3.24908094    2.86146438   -8.25422931    h      1.000     0
         -5.69860537    3.34437062   -0.38200075    h      1.000     0
          1.36492486   -6.06115995    0.72725847    h      1.000     0
          3.07410610   -2.91230163    8.31479939    h      1.000     0
         -0.34614167   -5.73692605    5.72630463    h      1.000     0
          4.30635263    4.15221927    6.20924879    h      1.000     0
          0.16873954    5.72492615   -5.70047194    h      1.000     0
         -4.28771886   -4.10602202   -6.22051242    h      1.000     0
 
       center of nuclear mass  :    0.01221246    0.00507335   -0.00579951
       center of nuclear charge:    0.01061836    0.00446242   -0.00505459

              +--------------------------------------------------+
              |               basis set information              |
              +--------------------------------------------------+

              we will work with the 1s 3p 5d 7f 9g ... basis set
              ...i.e. with spherical basis functions...

   type   atoms  prim   cont   basis
   ---------------------------------------------------------------------------
    y        2     57     31   def2-SVP   [5s3p2d1f|7s6p5d1f]
    h       22      7      5   def2-SVP   [2s1p|4s1p]
    c       20     24     14   def2-SVP   [3s2p1d|7s4p1d]
   ---------------------------------------------------------------------------
   total:   44    748    452
   ---------------------------------------------------------------------------

   total number of primitive shells          :   36
   total number of contracted shells         :  208
   total number of cartesian basis functions :  482
   total number of SCF-basis functions       :  452


 integral neglect threshold       :  0.69E-11
 integral storage threshold THIZE :  0.10E-04
 integral storage threshold THIME :         5

 number of unique ecp types :                     1
 RI-J AUXILIARY BASIS SET information:

              we will work with the 1s 3p 5d 7f 9g ... basis set
              ...i.e. with spherical basis functions...

   type   atoms  prim   cont   basis
   ---------------------------------------------------------------------------
    y        2     99     89   def2-SVP   [8s5p5d2f3g|11s5p5d3f3g]
    h       22     16     11   def2-SVP   [3s1p1d|5s2p1d]
    c       20     70     49   def2-SVP   [6s4p3d1f1g|12s5p4d2f1g]
   ---------------------------------------------------------------------------
   total:   44   1950   1400
   ---------------------------------------------------------------------------

   total number of primitive shells          :   59
   total number of contracted shells         :  456
   total number of cartesian basis functions : 1720
   total number of SCF-basis functions       : 1400


 symmetry group of the molecule :   c1 

 the group has the following generators :
   c1(z)

    1 symmetry operations found

 there are 1 real representations :   a   

 maximum number of shells which are related by symmetry :  1


    mo occupation :
   irrep   mo's   occupied
    a      452       82
 
 number of basis functions   :                    452
 number of occupied orbitals :                     82
 
  
           ------------------
           density functional
           ------------------
 TPSS global hybrid functional
 exchange:    9/10 (LDA+TPSS) + 1/10 HF
 correlation: LDA (PW) + TPSS

 iterations will be done with small grid
  
 spherical integration : Lebedev's spherical grid
 spherical gridsize    :                     5
    i.e. gridpoints    :                   590
 value for diffuse not defined
 radial integration    : Chebyshev 2nd kind (scaling 3)
 radial gridsize       :                     8
 integration cells     :                    44
 partition function    : becke
 partition sharpness   :                     3
  

 biggest AO integral is expected to be     3.528781981
  
           ------------------------
               RI-J - INFORMATION
           ------------------------
 Memory core needed for (P|Q) and Cholesky      8 MByte on GA
 Memory core minimum needed except           1 MByte 
  
 ****************************************
 Memory allocated for RI-J 1 MByte
 plus additional 8 MByte (pqmatrix)  (GA)
 ****************************************
                                            
allocating par_xzuhag(  187.10 MB)

          ------------------------
          nuclear repulsion energy  :   1825.76584526    
          ------------------------

  _________________________________
 |                                 |
 |         DFTD3 V3.1 Rev 0        |
 | S.Grimme, University Bonn       |
 |            June  2014           |
 |   see standalone version        |
 |       dftd3 -h for options      |
 |_________________________________|
 
 Please cite DFT-D3 work done with this code as:
 S. Grimme, J. Antony, S. Ehrlich and H. Krieg,
 J. Chem. Phys, 132 (2010), 154104.
 If used with BJ-damping cite also
 S. Grimme, S. Ehrlich and L. Goerigk,
 J. Comput. Chem. 32 (2011), 1456-1465
 For DFT-D2 the reference is
 S. Grimme, J. Comput. Chem., 27 (2006), 1787-1799
 
C6 coefficients used:
                     2  C6 for element                      1
Z=  1 CN= 0.912     C6(AA)=    3.03
Z=  1 CN= 0.000     C6(AA)=    7.59
                     5  C6 for element                      6
Z=  6 CN= 0.000     C6(AA)=   49.11
Z=  6 CN= 0.987     C6(AA)=   43.25
Z=  6 CN= 1.998     C6(AA)=   29.36
Z=  6 CN= 2.999     C6(AA)=   25.78
Z=  6 CN= 3.984     C6(AA)=   18.21
                     3  C6 for element                     39
Z= 39 CN= 0.000     C6(AA)= 2365.89
Z= 39 CN= 1.915     C6(AA)= 1132.30
Z= 39 CN= 2.890     C6(AA)=  451.08

#           XYZ [au]              R0(AA) [Ang.]  CN          C6(AA)     C8(AA)   C10(AA) [au]
  1  -1.01101   0.17870  -3.12145   y   2.110 11.345       451.1     86005.2  20087594.1
  2  -2.05665  -1.06203   0.61990   h   1.091  1.686         3.0        36.6       541.9
  3  -3.29151   3.30961  -6.24040   c   1.455  4.100        18.3       528.1     18711.7
  4  -5.20761   2.54033  -4.50665   c   1.455  4.067        18.3       528.6     18728.4
  5  -4.59512   3.59278  -2.11632   c   1.455  4.069        18.3       528.6     18726.9
  6  -2.31962   4.98371  -2.33607   c   1.455  4.069        18.3       528.6     18726.9
  7  -1.47925   4.82331  -4.90891   c   1.455  4.072        18.3       528.5     18725.3
  8  -0.76183  -4.80031  -3.95861   c   1.455  4.060        18.3       528.7     18732.4
  9   1.74772  -3.88761  -4.25896   c   1.455  4.062        18.3       528.7     18730.9
 10   1.80245  -2.27891  -6.42971   c   1.455  4.074        18.3       528.5     18724.6
 11  -0.68823  -2.21741  -7.46435   c   1.455  4.094        18.3       528.2     18714.3
 12  -2.29803  -3.76821  -5.93044   c   1.455  4.062        18.3       528.7     18731.4
 13   1.06607  -0.16164   3.09667   y   2.110 11.345       451.1     86005.2  20087594.1
 14   2.11320   1.09254  -0.64308   h   1.091  1.682         3.0        36.6       541.9
 15   3.19528  -3.34714   6.29922   c   1.455  4.082        18.3       528.4     18720.4
 16   5.16085  -2.58551   4.62342   c   1.455  4.098        18.3       528.2     18712.7
 17   4.64496  -3.64238   2.19124   c   1.455  4.047        18.3       529.0     18740.3
 18   2.35134  -4.97659   2.34276   c   1.455  4.060        18.3       528.7     18732.4
 19   1.44200  -4.77936   4.93046   c   1.455  4.080        18.3       528.4     18721.3
 20   0.83027   4.80759   3.89990   c   1.455  4.069        18.3       528.6     18726.9
 21  -1.71068   3.90387   4.18072   c   1.455  4.064        18.3       528.7     18729.7
 22  -1.79168   2.32181   6.33919   c   1.455  4.074        18.3       528.5     18724.4
 23   0.69736   2.25336   7.42701   c   1.455  4.090        18.3       528.3     18716.2
 24   2.32008   3.81376   5.88239   c   1.455  4.060        18.3       528.7     18732.1
 25  -1.41377  -6.06501  -2.46078   h   1.091  1.010         3.1        37.3       552.4
 26   3.35954  -4.34555  -3.06056   h   1.091  1.012         3.1        37.3       552.3
 27   3.46967  -1.33419  -7.20253   h   1.091  1.010         3.1        37.3       552.4
 28  -1.25977  -1.19421  -9.16456   h   1.091  1.011         3.1        37.3       552.3
 29   5.79247  -3.41362   0.49592   h   1.091  1.011         3.1        37.3       552.4
 30   6.81335  -1.45606   5.12979   h   1.091  1.011         3.1        37.3       552.4
 31  -3.47940   1.37330   7.10930   h   1.091  1.008         3.1        37.3       552.6
 32   1.51811   6.06140   2.43827   h   1.091  1.012         3.1        37.3       552.3
 33  -3.30010   4.35667   2.99861   h   1.091  1.014         3.1        37.3       552.1
 34   1.25054   1.23730   9.13830   h   1.091  1.011         3.1        37.3       552.4
 35  -6.86411   1.38658  -4.94280   h   1.091  1.010         3.1        37.3       552.4
 36  -1.37947   6.01256  -0.81729   h   1.091  1.012         3.1        37.3       552.3
 37  -3.24908   2.86146  -8.25423   h   1.091  1.011         3.1        37.3       552.3
 38  -5.69861   3.34437  -0.38200   h   1.091  1.010         3.1        37.3       552.4
 39   1.36492  -6.06116   0.72726   h   1.091  0.994         3.1        37.4       553.8
 40   3.07411  -2.91230   8.31480   h   1.091  1.011         3.1        37.3       552.3
 41  -0.34614  -5.73693   5.72630   h   1.091  0.993         3.1        37.4       553.8
 42   4.30635   4.15222   6.20925   h   1.091  1.012         3.1        37.3       552.3
 43   0.16874   5.72493  -5.70047   h   1.091  1.012         3.1        37.3       552.3
 44  -4.28772  -4.10602  -6.22051   h   1.091  1.013         3.1        37.3       552.2

molecular C6(AA) [au] =     27205.96

           DFT-D V3
 DF tpssh                                             
 parameters
 s6       :    1.0000
 s8       :    1.2190
 rs6      :    1.2230
 rs18     :    1.0000
 alpha6   :   14.0000
 alpha8   :   16.0000
 k1-k3    :   16.0000    1.3333   -4.0000
 
 Edisp /kcal,au:   -27.6686 -0.04409267

 E6    /kcal :    -8.5716
 E8    /kcal :   -19.0970
 % E8        : 69.02
 nuclear repulsion energy                  =    1825.765845262
 empirical dispersive energy correction    =      -0.044092671
 nuclear repulsion + dispersion correction =    1825.721752591


         -----------------
         -S,T+V- integrals
         -----------------

 1e-integrals will be neglected if expon. factor < 0.693353E-12


          ----------------
          -ecp-  integrals
          ----------------
 
   Difference densities algorithm switched on.
   The maximal number of linear combinations of
   difference densities is                    20 .

 DIIS switched on: error vector is FDS-SDF
 Max. Iterations for DIIS is     :   4
 DIIS matrix (see manual) 
    Scaling factor of diagonals  :  1.200
    threshold for scaling factor :  0.000

 scf convergence criterion : increment of total energy < .1000000D-06
                  and increment of one-electron energy < .1000000D-03

  MOs are in ASCII format !


 automatic virtual orbital shift switched on 
      shift if e(lumo)-e(homo) <  2.0000000    


 reading orbital data $scfmo  from file mos
 orbital characterization : expanded
 stacho: isym= 1 dev_max=0.120116E-10 threshold=0.100000E-09
 mo provided and orthogonalized by Cholesky decomposition

 DSCF restart information will be dumped onto file mos


 Starting SCF iterations

          Overall gridpoints after grid construction =        213261

 ITERATION  ENERGY          1e-ENERGY        2e-ENERGY     NORM[dD(SAO)]  TOL
   1  -848.43875420414    -4759.5704673     2085.4099605    0.000D+00 0.692D-11
                            Exc = -112.111117719     Coul =  2209.26185229    
                            exK = -11.7407740718    
                              N = 164.00109048    
                            current damping = 0.700
 
          max. resid. norm for Fia-block=  1.996D+00 for orbital     21a         
          max. resid. fock norm         =  5.405D+00 for orbital    250a         

 ITERATION  ENERGY          1e-ENERGY        2e-ENERGY     NORM[dD(SAO)]  TOL
   2  -850.87311654683    -4786.8661836     2110.2713145    0.274D+01 0.445D-11
                            Exc = -113.733704648      Eck =  2224.00501915    
                              N = 164.00118967    
                            current damping = 0.650
 
          Norm of current diis error:  2.8715    
          max. resid. norm for Fia-block=  3.672D-01 for orbital     21a         
          max. resid. fock norm         =  3.700D-01 for orbital     21a         
          irrep a   : virtual orbitals shifted by    1.22886

 ITERATION  ENERGY          1e-ENERGY        2e-ENERGY     NORM[dD(SAO)]  TOL
   3  -851.35561565594    -4792.3109496     2115.2335813    0.512D+00 0.348D-11
                            Exc = -114.178596491      Eck =  2229.41217783    
                              N = 164.00122315    
                            current damping = 0.550
 
          Norm of current diis error:  1.7808    
          max. resid. norm for Fia-block=  2.016D-01 for orbital     21a         
          max. resid. fock norm         =  2.025D-01 for orbital     21a         
          irrep a   : virtual orbitals shifted by    1.61817

 ITERATION  ENERGY          1e-ENERGY        2e-ENERGY     NORM[dD(SAO)]  TOL
   4  -851.56015528590    -4795.4910106     2118.2091028    0.125D+00 0.289D-11
                            Exc = -114.429996952      Eck =  2232.63909972    
                              N = 164.00125489    
                            current damping = 0.450
 
          Norm of current diis error:  1.1530    
          max. resid. norm for Fia-block=  1.171D-01 for orbital     21a         
          max. resid. fock norm         =  1.173D-01 for orbital     21a         
          irrep a   : virtual orbitals shifted by    1.75706

 ITERATION  ENERGY          1e-ENERGY        2e-ENERGY     NORM[dD(SAO)]  TOL
   5  -851.65460112254    -4797.5251848     2120.1488310    0.294D-01 0.247D-11
                            Exc = -114.580376754      Eck =  2234.72920780    
                              N = 164.00128296    
                            current damping = 0.350
 
          Norm of current diis error: 0.76861    
          max. resid. norm for Fia-block=  6.737D-02 for orbital     21a         
          max. resid. fock norm         =  6.741D-02 for orbital     21a         
          irrep a   : virtual orbitals shifted by    1.80497
          mo-orthogonalization: Cholesky decomposition

 ITERATION  ENERGY          1e-ENERGY        2e-ENERGY     NORM[dD(SAO)]  TOL
   6  -851.70079167239    -4798.9215914     2121.4990472    0.845D-02 0.214D-11
                            Exc = -114.675478462      Eck =  2236.17452564    
                              N = 164.00130718    
                            current damping = 0.250
 
          Norm of current diis error: 0.52446    
          max. resid. norm for Fia-block=  3.775D-02 for orbital     22a         
          max. resid. fock norm         =  3.775D-02 for orbital     22a         
          irrep a   : virtual orbitals shifted by    1.82442

 ITERATION  ENERGY          1e-ENERGY        2e-ENERGY     NORM[dD(SAO)]  TOL
   7  -851.72434252879    -4799.8587807     2122.4126856    0.435D-02 0.187D-11
                            Exc = -114.735277588      Eck =  2237.14796321    
                              N = 164.00132826    
                            current damping = 0.150
 
          Norm of current diis error: 0.36711    
          max. resid. norm for Fia-block=  2.038D-02 for orbital     22a         
          max. resid. fock norm         =  2.172D-02 for orbital     89a         
          irrep a   : virtual orbitals shifted by    1.83654

 ITERATION  ENERGY          1e-ENERGY        2e-ENERGY     NORM[dD(SAO)]  TOL
   8  -851.73688814527    -4800.5105900     2123.0519493    0.316D-02 0.166D-11
                            Exc = -114.773800231      Eck =  2237.82574952    
                              N = 164.00134715    
                            current damping = 0.050
 
          Norm of current diis error: 0.26337    
          max. resid. norm for Fia-block=  1.554D-02 for orbital     73a         
          max. resid. fock norm         =  1.556D-02 for orbital     73a         
          irrep a   : virtual orbitals shifted by    1.84849

 ITERATION  ENERGY          1e-ENERGY        2e-ENERGY     NORM[dD(SAO)]  TOL
   9  -851.74388031829    -4800.9699409     2123.5043080    0.167D-02 0.150D-11
                            Exc = -114.798659369      Eck =  2238.30296740    
                              N = 164.00136403    
                            current damping = 0.050
 
          Norm of current diis error: 0.19384    
          max. resid. norm for Fia-block=  1.336D-02 for orbital     73a         
          max. resid. fock norm         =  1.337D-02 for orbital     73a         
          irrep a   : virtual orbitals shifted by    1.84688

 ITERATION  ENERGY          1e-ENERGY        2e-ENERGY     NORM[dD(SAO)]  TOL
  10  -851.74790208707    -4801.2929699     2123.8233153    0.771D-03 0.139D-11
                            Exc = -114.814349785      Eck =  2238.63766504    
                              N = 164.00137886    
                            current damping = 0.050
 
          Norm of current diis error: 0.14732    
          max. resid. norm for Fia-block=  1.159D-02 for orbital     73a         
          max. resid. fock norm         =  1.159D-02 for orbital     73a         
          irrep a   : virtual orbitals shifted by    1.84559
          mo-orthogonalization: Cholesky decomposition

 ITERATION  ENERGY          1e-ENERGY        2e-ENERGY     NORM[dD(SAO)]  TOL
  11  -851.75033984710    -4801.5208805     2124.0487881    0.732D-03 0.130D-11
                            Exc = -114.824414073      Eck =  2238.87320218    
                              N = 164.00139204    
                            current damping = 0.050
 
          Norm of current diis error: 0.11519    
          max. resid. norm for Fia-block=  1.012D-02 for orbital     73a         
          max. resid. fock norm         =  1.013D-02 for orbital     73a         
          irrep a   : virtual orbitals shifted by    1.84459

 ITERATION  ENERGY          1e-ENERGY        2e-ENERGY     NORM[dD(SAO)]  TOL
  12  -851.75188512349    -4801.6858704     2124.2122327    0.212D-03 0.123D-11
                            Exc = -114.831030367      Eck =  2239.04326305    
                              N = 164.00140376    
                            current damping = 0.050
 
          Norm of current diis error: 0.92240E-01
          max. resid. norm for Fia-block=  8.901D-03 for orbital     73a         
          max. resid. fock norm         =  8.904D-03 for orbital     73a         
          irrep a   : virtual orbitals shifted by    1.84385

 ITERATION  ENERGY          1e-ENERGY        2e-ENERGY     NORM[dD(SAO)]  TOL
  13  -851.75290201148    -4801.8074750     2124.3328204    0.639D-04 0.117D-11
                            Exc = -114.835415811      Eck =  2239.16823616    
                              N = 164.00141411    
                            current damping = 0.050
 
          Norm of current diis error: 0.75334E-01
          max. resid. norm for Fia-block=  7.858D-03 for orbital     73a         
          max. resid. fock norm         =  7.860D-03 for orbital     73a         
          irrep a   : virtual orbitals shifted by    1.84328

 ITERATION  ENERGY          1e-ENERGY        2e-ENERGY     NORM[dD(SAO)]  TOL
  14  -851.75359201530    -4801.8984887     2124.4231441    0.352D-04 0.112D-11
                            Exc = -114.838338840      Eck =  2239.26148292    
                              N = 164.00142322    
                            current damping = 0.050
 
          Norm of current diis error: 0.62511E-01
          max. resid. norm for Fia-block=  6.957D-03 for orbital     73a         
          max. resid. fock norm         =  6.962D-03 for orbital     83a         
          irrep a   : virtual orbitals shifted by    1.84283

 ITERATION  ENERGY          1e-ENERGY        2e-ENERGY     NORM[dD(SAO)]  TOL
  15  -851.75407172552    -4801.9672228     2124.4913985    0.283D-04 0.108D-11
                            Exc = -114.840293516      Eck =  2239.33169201    
                              N = 164.00143121    
                            current damping = 0.050
 
          Norm of current diis error: 0.52542E-01
          max. resid. norm for Fia-block=  6.174D-03 for orbital     73a         
          max. resid. fock norm         =  6.183D-03 for orbital     83a         
          irrep a   : virtual orbitals shifted by    1.84247
          mo-orthogonalization: Cholesky decomposition

 ITERATION  ENERGY          1e-ENERGY        2e-ENERGY     NORM[dD(SAO)]  TOL
  16  -851.75441212518    -4802.0199433     2124.5437786    0.147D-04 0.104D-11
                            Exc = -114.841606086      Eck =  2239.38538464    
                              N = 164.00143819    
                            current damping = 0.050
 
          Norm of current diis error: 0.44613E-01
          max. resid. norm for Fia-block=  5.489D-03 for orbital     73a         
          max. resid. fock norm         =  5.500D-03 for orbital     83a         
          irrep a   : virtual orbitals shifted by    1.84219

 ITERATION  ENERGY          1e-ENERGY        2e-ENERGY     NORM[dD(SAO)]  TOL
  17  -851.75465780204    -4802.0608296     2124.5844192    0.522D-05 0.100D-11
                            Exc = -114.842478620      Eck =  2239.42689781    
                              N = 164.00144427    
                            current damping = 0.050
 
          Norm of current diis error: 0.38183E-01
          max. resid. norm for Fia-block=  4.887D-03 for orbital     73a         
          max. resid. fock norm         =  4.899D-03 for orbital     83a         
          irrep a   : virtual orbitals shifted by    1.84197

 ITERATION  ENERGY          1e-ENERGY        2e-ENERGY     NORM[dD(SAO)]  TOL
  18  -851.75483757541    -4802.0928166     2124.6162265    0.245D-05 0.968D-12
                            Exc = -114.843049817      Eck =  2239.45927629    
                              N = 164.00144954    
                            current damping = 0.050
 
          Norm of current diis error: 0.32888E-01
          max. resid. norm for Fia-block=  4.356D-03 for orbital     73a         
          max. resid. fock norm         =  4.368D-03 for orbital     83a         
          irrep a   : virtual orbitals shifted by    1.84178

 ITERATION  ENERGY          1e-ENERGY        2e-ENERGY     NORM[dD(SAO)]  TOL
  19  -851.75497062259    -4802.1180107     2124.6412875    0.196D-05 0.936D-12
                            Exc = -114.843413814      Eck =  2239.48470131    
                              N = 164.00145412    
                            current damping = 0.050
 
          Norm of current diis error: 0.28474E-01
          max. resid. norm for Fia-block=  3.886D-03 for orbital     73a         
          max. resid. fock norm         =  3.898D-03 for orbital     83a         
          irrep a   : virtual orbitals shifted by    1.84163

 ITERATION  ENERGY          1e-ENERGY        2e-ENERGY     NORM[dD(SAO)]  TOL
  20  -851.75507004558    -4802.1380082     2124.6611856    0.152D-05 0.905D-12
                            Exc = -114.843634809      Eck =  2239.50482038    
                              N = 164.00145808    
                            current damping = 0.050
 
          Norm of current diis error: 0.24757E-01
          max. resid. norm for Fia-block=  3.470D-03 for orbital     73a         
          max. resid. fock norm         =  3.481D-03 for orbital     83a         
          irrep a   : virtual orbitals shifted by    1.84151
          mo-orthogonalization: Cholesky decomposition

 ITERATION  ENERGY          1e-ENERGY        2e-ENERGY     NORM[dD(SAO)]  TOL
  21  -851.75514495433    -4802.1539560     2124.6770584    0.813D-06 0.875D-12
                            Exc = -114.843755909      Eck =  2239.52081433    
                              N = 164.00146151    
                            current damping = 0.050
 
          Norm of current diis error: 0.21600E-01
          max. resid. norm for Fia-block=  3.101D-03 for orbital     73a         
          max. resid. fock norm         =  3.110D-03 for orbital     83a         
          irrep a   : virtual orbitals shifted by    1.84140

 ITERATION  ENERGY          1e-ENERGY        2e-ENERGY     NORM[dD(SAO)]  TOL
  22  -851.75520156031    -4802.1667268     2124.6897726    0.813D-06 0.692D-11
                            Exc = -114.843808622     Coul =  2251.59382583    
                            exK = -12.0602445904    
                              N = 164.00146449    
                            current damping = 0.050
 
          Norm of current diis error: 0.18901E-01
          max. resid. norm for Fia-block=  2.772D-03 for orbital     73a         
          max. resid. fock norm         =  2.780D-03 for orbital     83a         
          irrep a   : virtual orbitals shifted by    1.84132

 ITERATION  ENERGY          1e-ENERGY        2e-ENERGY     NORM[dD(SAO)]  TOL
  23  -851.75524489555    -4802.1769904     2124.6999929    0.747D-02 0.439D-11
                            Exc = -114.843814802      Eck =  2239.54380770    
                              N = 164.00146707    
                            current damping = 0.050
 
          Norm of current diis error: 0.16582E-01
          max. resid. norm for Fia-block=  2.480D-03 for orbital     73a         
          max. resid. fock norm         =  2.487D-03 for orbital     83a         
          irrep a   : virtual orbitals shifted by    1.84125

 ITERATION  ENERGY          1e-ENERGY        2e-ENERGY     NORM[dD(SAO)]  TOL
  24  -851.75527814142    -4802.1852711     2124.7082404    0.287D-03 0.302D-11
                            Exc = -114.843790095      Eck =  2239.55203047    
                              N = 164.00146930    
                            current damping = 0.050
 
          Norm of current diis error: 0.14578E-01
          max. resid. norm for Fia-block=  2.219D-03 for orbital     73a         
          max. resid. fock norm         =  2.226D-03 for orbital     83a         
          irrep a   : virtual orbitals shifted by    1.84119

 ITERATION  ENERGY          1e-ENERGY        2e-ENERGY     NORM[dD(SAO)]  TOL
  25  -851.75530376203    -4802.1919684     2124.7149120    0.202D-04 0.232D-11
                            Exc = -114.843745417      Eck =  2239.55865746    
                              N = 164.00147124    
                            current damping = 0.050
 
          Norm of current diis error: 0.12841E-01
          max. resid. norm for Fia-block=  1.987D-03 for orbital     73a         
          max. resid. fock norm         =  1.992D-03 for orbital     83a         
          irrep a   : virtual orbitals shifted by    1.84114
          mo-orthogonalization: Cholesky decomposition

 ITERATION  ENERGY          1e-ENERGY        2e-ENERGY     NORM[dD(SAO)]  TOL
  26  -851.75532358325    -4802.1973997     2124.7203235    0.496D-05 0.190D-11
                            Exc = -114.843688738      Eck =  2239.56401224    
                              N = 164.00147293    
                            current damping = 0.050
 
          Norm of current diis error: 0.11330E-01
          max. resid. norm for Fia-block=  1.780D-03 for orbital     73a         
          max. resid. fock norm         =  1.784D-03 for orbital     83a         
          irrep a   : virtual orbitals shifted by    1.84109

 ITERATION  ENERGY          1e-ENERGY        2e-ENERGY     NORM[dD(SAO)]  TOL
  27  -851.75533897527    -4802.2018152     2124.7247237    0.296D-04 0.161D-11
                            Exc = -114.843625523      Eck =  2239.56834920    
                              N = 164.00147440    
                            current damping = 0.050
 
          Norm of current diis error: 0.10011E-01
          max. resid. norm for Fia-block=  1.595D-03 for orbital     73a         
          max. resid. fock norm         =  1.599D-03 for orbital     83a         
          irrep a   : virtual orbitals shifted by    1.84106

 ITERATION  ENERGY          1e-ENERGY        2e-ENERGY     NORM[dD(SAO)]  TOL
  28  -851.75535096160    -4802.2054144     2124.7283108    0.503D-05 0.141D-11
                            Exc = -114.843559659      Eck =  2239.57187050    
                              N = 164.00147567    
                            current damping = 0.050
 
          Norm of current diis error: 0.88570E-02
          max. resid. norm for Fia-block=  1.429D-03 for orbital     73a         
          max. resid. fock norm         =  1.433D-03 for orbital     83a         
          irrep a   : virtual orbitals shifted by    1.84103

 ITERATION  ENERGY          1e-ENERGY        2e-ENERGY     NORM[dD(SAO)]  TOL
  29  -851.75536032254    -4802.2083543     2124.7312414    0.166D-05 0.126D-11
                            Exc = -114.843493807      Eck =  2239.57473524    
                              N = 164.00147679    
                            current damping = 0.050
 
          Norm of current diis error: 0.78454E-02
          max. resid. norm for Fia-block=  1.282D-03 for orbital     73a         
          max. resid. fock norm         =  1.284D-03 for orbital     83a         
          irrep a   : virtual orbitals shifted by    1.84100

 ITERATION  ENERGY          1e-ENERGY        2e-ENERGY     NORM[dD(SAO)]  TOL
  30  -851.75536764979    -4802.2107615     2124.7336412    0.888D-06 0.116D-11
                            Exc = -114.843429779      Eck =  2239.57707101    
                              N = 164.00147776    
                            current damping = 0.050
 
          Norm of current diis error: 0.69566E-02
          max. resid. norm for Fia-block=  1.149D-03 for orbital     73a         
          max. resid. fock norm         =  1.151D-03 for orbital     83a         
          irrep a   : virtual orbitals shifted by    1.84098
          mo-orthogonalization: Cholesky decomposition

 ITERATION  ENERGY          1e-ENERGY        2e-ENERGY     NORM[dD(SAO)]  TOL
  31  -851.75537339608    -4802.2127368     2124.7356108    0.727D-06 0.108D-11
                            Exc = -114.843368712      Eck =  2239.57897951    
                              N = 164.00147860    
                            current damping = 0.050
 
          Norm of current diis error: 0.61744E-02
          max. resid. norm for Fia-block=  1.031D-03 for orbital     73a         
          max. resid. fock norm         =  1.033D-03 for orbital     83a         
          irrep a   : virtual orbitals shifted by    1.84096

 ITERATION  ENERGY          1e-ENERGY        2e-ENERGY     NORM[dD(SAO)]  TOL
  32  -851.75537790914    -4802.2143615     2124.7372310    0.927D-04 0.106D-11
                            Exc = -114.843311315      Eck =  2239.58054231    
                              N = 164.00147934    
                            current damping = 0.050
 
          Norm of current diis error: 0.54848E-02
          max. resid. norm for Fia-block=  9.247D-04 for orbital     73a         
          max. resid. fock norm         =  9.265D-04 for orbital     83a         
          irrep a   : virtual orbitals shifted by    1.84094

 ITERATION  ENERGY          1e-ENERGY        2e-ENERGY     NORM[dD(SAO)]  TOL
  33  -851.75538152309    -4802.2157008     2124.7385667    0.155D-03 0.111D-11
                            Exc = -114.843257966      Eck =  2239.58182462    
                              N = 164.00147999    
                            current damping = 0.050
 
          Norm of current diis error: 0.48761E-02
          max. resid. norm for Fia-block=  8.297D-04 for orbital     73a         
          max. resid. fock norm         =  8.313D-04 for orbital     83a         
          irrep a   : virtual orbitals shifted by    1.84093

 ITERATION  ENERGY          1e-ENERGY        2e-ENERGY     NORM[dD(SAO)]  TOL
  34  -851.75538444735    -4802.2168079     2124.7396708    0.636D-04 0.117D-11
                            Exc = -114.843208839      Eck =  2239.58287968    
                              N = 164.00148056    
                            current damping = 0.050
 
          Norm of current diis error: 0.43379E-02
          max. resid. norm for Fia-block=  7.446D-04 for orbital     73a         
          max. resid. fock norm         =  7.461D-04 for orbital     83a         
          irrep a   : virtual orbitals shifted by    1.84091

 ITERATION  ENERGY          1e-ENERGY        2e-ENERGY     NORM[dD(SAO)]  TOL
  35  -851.75538659620    -4802.2177251     2124.7405859    0.129D-01 0.197D-11
                            Exc = -114.843163895      Eck =  2239.58374979    
                              N = 164.00148105    
                            current damping = 0.050
 
          Norm of current diis error: 0.38617E-02
          max. resid. norm for Fia-block=  6.683D-04 for orbital     73a         
          max. resid. fock norm         =  6.697D-04 for orbital     83a         
          irrep a   : virtual orbitals shifted by    1.84090
          mo-orthogonalization: Cholesky decomposition

 ITERATION  ENERGY          1e-ENERGY        2e-ENERGY     NORM[dD(SAO)]  TOL
  36  -851.75538835822    -4802.2184850     2124.7413440    0.131D-03 0.197D-11
                            Exc = -114.843122906      Eck =  2239.58446692    
                              N = 164.00148149    
                            current damping = 0.050
 
          Norm of current diis error: 0.34399E-02
          max. resid. norm for Fia-block=  5.999D-04 for orbital     73a         
          max. resid. fock norm         =  6.013D-04 for orbital     83a         
          irrep a   : virtual orbitals shifted by    1.84089

 ITERATION  ENERGY          1e-ENERGY        2e-ENERGY     NORM[dD(SAO)]  TOL
  37  -851.75538975782    -4802.2191183     2124.7419759    0.174D-03 0.197D-11
                            Exc = -114.843085845      Eck =  2239.58506179    
                              N = 164.00148187    
                            current damping = 0.050
 
          Norm of current diis error: 0.30659E-02
          max. resid. norm for Fia-block=  5.385D-04 for orbital     73a         
          max. resid. fock norm         =  5.399D-04 for orbital     83a         
          irrep a   : virtual orbitals shifted by    1.84089

 ITERATION  ENERGY          1e-ENERGY        2e-ENERGY     NORM[dD(SAO)]  TOL
  38  -851.75539086842    -4802.2196464     2124.7425030    0.199D-03 0.197D-11
                            Exc = -114.843052419      Eck =  2239.58555540    
                              N = 164.00148220    
                            current damping = 0.050
 
          Norm of current diis error: 0.27339E-02
          max. resid. norm for Fia-block=  4.835D-04 for orbital     73a         
          max. resid. fock norm         =  4.848D-04 for orbital     83a         
          irrep a   : virtual orbitals shifted by    1.84088

 ITERATION  ENERGY          1e-ENERGY        2e-ENERGY     NORM[dD(SAO)]  TOL
  39  -851.75539174992    -4802.2200882     2124.7429439    0.193D-03 0.197D-11
                            Exc = -114.843022378      Eck =  2239.58596625    
                              N = 164.00148249    
                            current damping = 0.050
 
          Norm of current diis error: 0.24389E-02
          max. resid. norm for Fia-block=  4.341D-04 for orbital     73a         
          max. resid. fock norm         =  4.354D-04 for orbital     83a         
          irrep a   : virtual orbitals shifted by    1.84087
 density matrices became linear dependent...
Subroutine ddmat can not establish optimal linear combination of delta densities !
 Next fock matrix will be calculated from scratch !

 ITERATION  ENERGY          1e-ENERGY        2e-ENERGY     NORM[dD(SAO)]  TOL
  40  -851.75539247231    -4802.2204582     2124.7433131    0.193D-03 0.692D-11
                            Exc = -114.842995425     Coul =  2251.64636286    
                            exK = -12.0600542915    
                              N = 164.00148275    
                            current damping = 0.050
 
          Norm of current diis error: 0.21768E-02
          max. resid. norm for Fia-block=  3.898D-04 for orbital     73a         
          max. resid. fock norm         =  3.911D-04 for orbital     83a         
          irrep a   : virtual orbitals shifted by    1.84087
          mo-orthogonalization: Cholesky decomposition

 ITERATION  ENERGY          1e-ENERGY        2e-ENERGY     NORM[dD(SAO)]  TOL
  41  -851.75539302618    -4802.2207695     2124.7436239    0.588D-03 0.439D-11
                            Exc = -114.842971361      Eck =  2239.58659524    
                              N = 164.00148298    
                            current damping = 0.050
 
          Norm of current diis error: 0.19436E-02
          max. resid. norm for Fia-block=  3.501D-04 for orbital     73a         
          max. resid. fock norm         =  3.514D-04 for orbital     83a         
          irrep a   : virtual orbitals shifted by    1.84086

 ITERATION  ENERGY          1e-ENERGY        2e-ENERGY     NORM[dD(SAO)]  TOL
  42  -851.75539346707    -4802.2210317     2124.7438856    0.131D-04 0.300D-11
                            Exc = -114.842949857      Eck =  2239.58683546    
                              N = 164.00148317    
                            current damping = 0.050
 
          Norm of current diis error: 0.17361E-02
          max. resid. norm for Fia-block=  3.144D-04 for orbital     73a         
          max. resid. fock norm         =  3.157D-04 for orbital     83a         
          irrep a   : virtual orbitals shifted by    1.84086

 ITERATION  ENERGY          1e-ENERGY        2e-ENERGY     NORM[dD(SAO)]  TOL
  43  -851.75539381709    -4802.2212531     2124.7441067    0.229D-05 0.230D-11
                            Exc = -114.842930690      Eck =  2239.58703736    
                              N = 164.00148335    
                            current damping = 0.050
 
          Norm of current diis error: 0.15513E-02
          max. resid. norm for Fia-block=  2.824D-04 for orbital     73a         
          max. resid. fock norm         =  2.837D-04 for orbital     83a         
          irrep a   : virtual orbitals shifted by    1.84086

 ENERGY CONVERGED !

          Overall gridpoints after grid construction =        677162

 ITERATION  ENERGY          1e-ENERGY        2e-ENERGY     NORM[dD(SAO)]  TOL
  44  -851.75486195379    -4802.2214405     2124.7448260    0.935D-05 0.197D-11
                            Exc = -114.842381486      Eck =  2239.58720746    
                              N = 164.00000663    
                            current damping = 0.050
 
          Norm of current diis error: 0.13866E-02
          max. resid. norm for Fia-block=  2.507D-04 for orbital     73a         
          max. resid. fock norm         =  2.525D-04 for orbital     83a         

 End of SCF iterations

   convergence criteria satisfied after   44 iterations


                  ------------------------------------------ 
                 |  total energy      =   -851.75486195379  |
                  ------------------------------------------ 
                 :  kinetic energy    =    789.83490436608  :
                 :  potential energy  =  -1641.58976631987  :
                 :  virial theorem    =      1.92730307703  :
                 :  wavefunction norm =      1.00000000000  :
                  .......................................... 


 <geterg> : there is no data group $energy 


 <skperg> : $end is missing 


 orbitals $scfmo  will be written to file mos

    irrep                 78a         79a         80a         81a         82a   
 eigenvalues H         -0.23326    -0.22898    -0.22665    -0.22518    -0.21365
            eV          -6.3475     -6.2309     -6.1676     -6.1276     -5.8137
 occupation              2.0000      2.0000      2.0000      2.0000      2.0000 

    irrep                 83a         84a         85a         86a         87a   
 eigenvalues H         -0.06209    -0.04621    -0.02299    -0.00942     0.00215
            eV          -1.6896     -1.2576     -0.6255     -0.2565      0.0586
 
 
 
 
 ==============================================================================
                           electrostatic moments
 ==============================================================================

 reference point for electrostatic moments:    0.00000   0.00000   0.00000

 
              nuc           elec       ->  total
 ------------------------------------------------------------------------------
                          charge      
 ------------------------------------------------------------------------------
         164.000000    -164.000000      -0.000000
 
 ------------------------------------------------------------------------------
                       dipole moment  
 ------------------------------------------------------------------------------
   x       0.794419      -0.780609       0.013811
   y       0.504047      -0.479948       0.024099
   z      -0.418287       0.424438       0.006151
 
   | dipole moment | =     0.0284 a.u. =     0.0723 debye 
 
 ------------------------------------------------------------------------------
                     quadrupole moment
 ------------------------------------------------------------------------------
  xx    1254.621878   -1375.117873    -120.495995
  yy    2035.275638   -2168.256288    -132.980650
  zz    3951.560052   -4072.644003    -121.083950
  xy    -745.779661     753.307323       7.527661
  xz    1044.556930   -1044.877020      -0.320091
  yz     156.887741    -160.264308      -3.376566
 
     1/3  trace=    -124.853532
     anisotropy=      18.798402
 
 ==============================================================================
 

    ridft profiling
  --------------------------------------------------------------------
             module   cpu total (s)       %  wall total (s)       %

               RIDFT           469.7  100.00          3648.4  100.00
         Ridft_b_scf             4.5    0.96            34.0    0.93
        b_scf_prelim             0.1    0.01             0.6    0.02
        b_scf_molinp             0.5    0.10             3.9    0.11
         b_scf_init0             0.1    0.03             1.2    0.03
        b_scf_auxbas             0.2    0.05             1.8    0.05
      b_scf_symmetry             0.0    0.00             0.3    0.01
         b_scf_cosmo             0.0    0.00             0.0    0.00
        b_scf_params             0.5    0.11             4.3    0.12
          b_scf_ri-j             1.4    0.30            10.1    0.28
    b_scf_ri-j_auxpq             1.3    0.27             9.2    0.25
     ri-j_auxpq_chol             0.4    0.09             2.4    0.07
         b_scf_1elec             0.9    0.18             7.0    0.19
       b_scf_moinput             0.7    0.16             4.6    0.13
     prepare.moinput             0.0    0.01             0.3    0.01
     moinput_orthmos             0.5    0.10             2.2    0.06
    b_scf_dft-dstmax             0.0    0.00             0.0    0.00
           Ridft_scf           465.0   99.00          3612.5   99.02
          Scf_b_loop             0.4    0.09             3.5    0.10
                noga             0.0    0.00             0.0    0.00
            Scf_loop           464.2   98.84          3606.6   98.85
     scf_loop_mkdmat            16.5    3.51           131.1    3.59
       scf_loop_ri-j            76.2   16.23           609.3   16.70
    ri-j_near_lpdrc1             2.6    0.56            21.3    0.58
    ri-j_near_lpdrc2             2.7    0.58            21.6    0.59
       scf_loop_ex-K           163.5   34.82          1306.3   35.81
         scf_loop_k1           150.7   32.09          1203.6   32.99
     scf_loop_symcar             7.2    1.54            57.6    1.58
      scf_loop_dfmat             3.4    0.72            27.0    0.74
        scf_loop_dft           155.3   33.06          1240.6   34.00
        dft_grid_con             2.9    0.62            23.3    0.64
         dft_xc_eval           135.5   28.84          1081.8   29.65
     scf_loop_energy             1.4    0.31            11.5    0.32
     scf_loop_mkfock             0.8    0.16             6.0    0.16
       scf_loop_diis            16.6    3.53           103.0    2.82
       scf_loop_diag            21.7    4.62           106.7    2.92
     scf_loop_modump             0.0    0.00             0.0    0.00
      scf_loop_ortho             1.6    0.34             7.3    0.20
          Scf_a_loop             0.3    0.06             2.2    0.06
         Ridft_a_scf             0.2    0.04             1.4    0.04
         a_scf_fanal             0.1    0.03             1.0    0.03
 


    ------------------------------------------------------------------------
         total  cpu-time :  7 minutes and 53 seconds
         total wall-time :  1 hours  1 minutes and 19 seconds
    ------------------------------------------------------------------------

   ****  ridft : all done  ****


    2018-01-28 16:11:31.619 

 ridft ended normally
fine, there is no data group "$actual step"
next step = rdgrad

OPTIMIZATION CYCLE 1
Sun Jan 28 16:11:33 PST 2018
Found old shared memory segments from previous Turbomole job 7214
... which could not be removed since they belong to user:
lcantumo
Found old shared memory segments from previous Turbomole job 30758
... which could not be removed since they belong to user:
sreeganb
STARTING rdgrad ON 8 PROCESSORS!
RUNNING PROGRAM /beegfs/modfac/apps/TURBOMOLE/7.2-official/bin/em64t-unknown-linux-gnu_smp/rdgrad_mpi.
PLEASE WAIT UNTIL rdgrad HAS FINISHED.
 c-8-253.local ( 1 ) 
 c-8-253.local ( 2 ) 
 c-8-253.local ( 3 ) 
 c-8-253.local ( 4 ) 
 c-8-253.local ( 5 ) 
 c-8-253.local ( 6 ) 
 c-8-253.local ( 7 ) 
 this is node-proc. number 0 running on node c-8-253.local
 the total number of node-proc. spawned is   8
 GA version: using    8 (total) on    1 nhosts.
 operating system is UNIX !

 rdgrad (c-8-253.local) : TURBOMOLE V7.2 ( 21287 ) 3 Jul 2017 at 09:36:10
 Copyright (C) 2017 TURBOMOLE GmbH, Karlsruhe


    2018-01-28 16:12:03.247 

 ********** GlobalArray OPTION SETTINGS : **********
 *****************************************************

 gradient run will be profiled !



                                 r d g r a d

                          gradient for ridft program 

                        by K.Eichkorn, O.Treutler, H.Oehm, 
                             M.Haeser and R.Ahlrichs
                  (Chemical Physics Letters 242 (1995) 652-660)
                    parallel version: M.v.Arnim  &  R.Ahlrichs
                            quantum chemistry group
                             university  karlsruhe
                                   germany




                          References             
                                                 
          Density Functional:                              
              O. Treutler and R. Ahlrichs                      
              Efficient Molecular Numerical Integration Schemes
              J. chem. Phys. 102: 346 (1995)                   
          Parallel Version:                                
              Performance of parallel TURBOMOLE for Density    
              Functional Calculations                          
              M. v.Arnim and R. Ahlrichs                      
              J. comp. Chem. 19: 1746 (1998)                   
          RI-J Method:                                     
              Auxiliary Basis Sets to approximate Coulomb      
              Potentials                                       
              Chem. Phys. Lett. 240: 283 (1995)                
              K. Eichkorn, O. Treutler, H. Oehm, M. Haeser     
              and R. Ahlrichs                                  
              Chem. Phys. Lett. 242: 652 (1995)                
                                                           
              Auxiliary Basis Sets for Main Row Atoms and their
              Use to approximate Coulomb Potentials            
              K. Eichkorn, F. Weigend, O. Treutler and         
              R. Ahlrichs                                      
              Theo. Chem. Acc. 97: 119 (1997)                   
                                         



 integral neglect threshold       :  0.69E-11
 integral storage threshold THIZE :  0.10E-04
 integral storage threshold THIME :         5

 number of unique ecp types :                     1

          ------------------
          -ecp- potential(s)
          ------------------

 center   1  y def2-ecp  (ecp no.  1)  ncore = 28,  lmax = 3

 center  13  y def2-ecp  (ecp no.  2)  ncore = 28,  lmax = 3
  (equal to center   1 y )
 TPSS global hybrid functional
 exchange:    9/10 (LDA+TPSS) + 1/10 HF
 correlation: LDA (PW) + TPSS
 A Hybrid-DFT calculation using the RI-J approximation will be carried out.
  
  
 AUXILIARY BASIS SET information:

 symmetry group of the molecule :   c1 

 the group has the following generators :
   c1(z)

    1 symmetry operations found

 there are 1 real representations :   a   

 maximum number of shells which are related by symmetry :  1


    mo occupation :
   irrep   mo's   occupied
    a      452       82
 
 number of basis functions   :                    452
 number of occupied orbitals :                     82
 

 number of off-diagonal lagrangians expected :  0

 biggest AO integral is expected to be     3.528781981
  
           ------------------
           density functional
           ------------------
 TPSS global hybrid functional
 exchange:    9/10 (LDA+TPSS) + 1/10 HF
 correlation: LDA (PW) + TPSS

 iterations will be done with small grid
  
 spherical integration : Lebedev's spherical grid
 spherical gridsize    :                     5
    i.e. gridpoints    :                   590
 value for diffuse not defined
 radial integration    : Chebyshev 2nd kind (scaling 3)
 radial gridsize       :                     8
 integration cells     :                    44
 partition function    : becke
 partition sharpness   :                     3
  
  
           ------------------------
             RDGRAD - INFORMATION
           ------------------------
  
 Threshold for integral neglect (rithr1): 1E-10
 Threshold for integral neglect (rithr2): 1E-10
     
 ****************************************
 Local memory allocated for RDGRAD: 4 MiB
 ****************************************
                                            
 PQ decomposition by parallel Cholesky:                  1400  basis functions.

 nuclear repulsion energy  :   1825.76584526    

  MOs are in ASCII format !


 reading orbital data $scfmo  from file mos
 orbital characterization : scfconv=7

    ----------------------------------------
     S+T+V CONTRIBUTIONS TO ENERGY GRADIENT 
    ----------------------------------------

 1e-integral 1st. derivatives will be neglected if expon. factor < 0.138904E-13

  _________________________________
 |                                 |
 |         DFTD3 V3.1 Rev 0        |
 | S.Grimme, University Bonn       |
 |            June  2014           |
 |   see standalone version        |
 |       dftd3 -h for options      |
 |_________________________________|
 
 Please cite DFT-D3 work done with this code as:
 S. Grimme, J. Antony, S. Ehrlich and H. Krieg,
 J. Chem. Phys, 132 (2010), 154104.
 If used with BJ-damping cite also
 S. Grimme, S. Ehrlich and L. Goerigk,
 J. Comput. Chem. 32 (2011), 1456-1465
 For DFT-D2 the reference is
 S. Grimme, J. Comput. Chem., 27 (2006), 1787-1799
 
C6 coefficients used:
                     2  C6 for element                      1
Z=  1 CN= 0.912     C6(AA)=    3.03
Z=  1 CN= 0.000     C6(AA)=    7.59
                     5  C6 for element                      6
Z=  6 CN= 0.000     C6(AA)=   49.11
Z=  6 CN= 0.987     C6(AA)=   43.25
Z=  6 CN= 1.998     C6(AA)=   29.36
Z=  6 CN= 2.999     C6(AA)=   25.78
Z=  6 CN= 3.984     C6(AA)=   18.21
                     3  C6 for element                     39
Z= 39 CN= 0.000     C6(AA)= 2365.89
Z= 39 CN= 1.915     C6(AA)= 1132.30
Z= 39 CN= 2.890     C6(AA)=  451.08

#           XYZ [au]              R0(AA) [Ang.]  CN          C6(AA)     C8(AA)   C10(AA) [au]
  1  -1.01101   0.17870  -3.12145   y   2.110 11.345       451.1     86005.2  20087594.1
  2  -2.05665  -1.06203   0.61990   h   1.091  1.686         3.0        36.6       541.9
  3  -3.29151   3.30961  -6.24040   c   1.455  4.100        18.3       528.1     18711.7
  4  -5.20761   2.54033  -4.50665   c   1.455  4.067        18.3       528.6     18728.4
  5  -4.59512   3.59278  -2.11632   c   1.455  4.069        18.3       528.6     18726.9
  6  -2.31962   4.98371  -2.33607   c   1.455  4.069        18.3       528.6     18726.9
  7  -1.47925   4.82331  -4.90891   c   1.455  4.072        18.3       528.5     18725.3
  8  -0.76183  -4.80031  -3.95861   c   1.455  4.060        18.3       528.7     18732.4
  9   1.74772  -3.88761  -4.25896   c   1.455  4.062        18.3       528.7     18730.9
 10   1.80245  -2.27891  -6.42971   c   1.455  4.074        18.3       528.5     18724.6
 11  -0.68823  -2.21741  -7.46435   c   1.455  4.094        18.3       528.2     18714.3
 12  -2.29803  -3.76821  -5.93044   c   1.455  4.062        18.3       528.7     18731.4
 13   1.06607  -0.16164   3.09667   y   2.110 11.345       451.1     86005.2  20087594.1
 14   2.11320   1.09254  -0.64308   h   1.091  1.682         3.0        36.6       541.9
 15   3.19528  -3.34714   6.29922   c   1.455  4.082        18.3       528.4     18720.4
 16   5.16085  -2.58551   4.62342   c   1.455  4.098        18.3       528.2     18712.7
 17   4.64496  -3.64238   2.19124   c   1.455  4.047        18.3       529.0     18740.3
 18   2.35134  -4.97659   2.34276   c   1.455  4.060        18.3       528.7     18732.4
 19   1.44200  -4.77936   4.93046   c   1.455  4.080        18.3       528.4     18721.3
 20   0.83027   4.80759   3.89990   c   1.455  4.069        18.3       528.6     18726.9
 21  -1.71068   3.90387   4.18072   c   1.455  4.064        18.3       528.7     18729.7
 22  -1.79168   2.32181   6.33919   c   1.455  4.074        18.3       528.5     18724.4
 23   0.69736   2.25336   7.42701   c   1.455  4.090        18.3       528.3     18716.2
 24   2.32008   3.81376   5.88239   c   1.455  4.060        18.3       528.7     18732.1
 25  -1.41377  -6.06501  -2.46078   h   1.091  1.010         3.1        37.3       552.4
 26   3.35954  -4.34555  -3.06056   h   1.091  1.012         3.1        37.3       552.3
 27   3.46967  -1.33419  -7.20253   h   1.091  1.010         3.1        37.3       552.4
 28  -1.25977  -1.19421  -9.16456   h   1.091  1.011         3.1        37.3       552.3
 29   5.79247  -3.41362   0.49592   h   1.091  1.011         3.1        37.3       552.4
 30   6.81335  -1.45606   5.12979   h   1.091  1.011         3.1        37.3       552.4
 31  -3.47940   1.37330   7.10930   h   1.091  1.008         3.1        37.3       552.6
 32   1.51811   6.06140   2.43827   h   1.091  1.012         3.1        37.3       552.3
 33  -3.30010   4.35667   2.99861   h   1.091  1.014         3.1        37.3       552.1
 34   1.25054   1.23730   9.13830   h   1.091  1.011         3.1        37.3       552.4
 35  -6.86411   1.38658  -4.94280   h   1.091  1.010         3.1        37.3       552.4
 36  -1.37947   6.01256  -0.81729   h   1.091  1.012         3.1        37.3       552.3
 37  -3.24908   2.86146  -8.25423   h   1.091  1.011         3.1        37.3       552.3
 38  -5.69861   3.34437  -0.38200   h   1.091  1.010         3.1        37.3       552.4
 39   1.36492  -6.06116   0.72726   h   1.091  0.994         3.1        37.4       553.8
 40   3.07411  -2.91230   8.31480   h   1.091  1.011         3.1        37.3       552.3
 41  -0.34614  -5.73693   5.72630   h   1.091  0.993         3.1        37.4       553.8
 42   4.30635   4.15222   6.20925   h   1.091  1.012         3.1        37.3       552.3
 43   0.16874   5.72493  -5.70047   h   1.091  1.012         3.1        37.3       552.3
 44  -4.28772  -4.10602  -6.22051   h   1.091  1.013         3.1        37.3       552.2

molecular C6(AA) [au] =     27205.96

           DFT-D V3
 DF tpssh                                             
 parameters
 s6       :    1.0000
 s8       :    1.2190
 rs6      :    1.2230
 rs18     :    1.0000
 alpha6   :   14.0000
 alpha8   :   16.0000
 k1-k3    :   16.0000    1.3333   -4.0000
 
 Edisp /kcal,au:   -27.6686 -0.04409267

 E6    /kcal :    -8.5716
 E8    /kcal :   -19.0970
 % E8        : 69.02
 
 doing analytical gradient O(N^2) ...
 
 |G|=  2.351029792228507E-002

 setting up bound for integral derivative estimation

 increment for numerical differentiation : 0.00050000

 biggest AO integral is expected to be     3.528781981
 biggest cartesian 1st derivative AO integral is expected to be     5.507249476

 biggest 1-particle AO density matrix element is expected to be    2.0860922117

 setting up bound for integral derivative estimation

 increment for numerical differentiation : 0.00050000

 biggest AO integral is expected to be     3.528781981
 biggest cartesian 1st derivative AO integral is expected to be     5.507249476

 2e-integral 1st. derivatives will be neglected if expon. factor < 0.100000E-06
 outer boundary for 2e-integral derivative neglection is 0.382985E-08


 performing derivative 2e integral batch statistics 

 #        istart  iend      jstart  jend  cost
     1         1   133         1    31          956652726.00
     2       133   142        32   116          956545065.00
     3       142   151       117    45          960067452.00
     4       151   157        46    72          957052050.00
     5       157   162        73   109          957827415.00
     6       162   174       110   126          957654486.00
     7       174   183       127    29          967082103.00
     8       183   183        30   129          972658320.00
     9       183   183       130   162          684099792.00
    10       183   184       163   123          689123730.00
    11       184   185       124   183          711695082.00
    12       185   188       184    14          683686704.00
    13       188   190        15    23          688000362.00
    14       190   192        24    26          690080634.00
    15       192   194        27    10          683516178.00
    16       194   195        11    45          683129874.00
    17       195   195        46    78          494480112.00
    18       195   195        79   118          488784648.00
    19       195   195       119   140          504664200.00
    20       195   195       141   152          489573432.00
    21       195   195       153   167          502618104.00
    22       195   195       168   189          489511440.00
    23       195   196       190    69          490309950.00
    24       196   196        70   145          496427238.00
    25       196   196       146   183          365504652.00
    26       196   197       184   144          350735490.00
    27       197   198       145   106          350235744.00
    28       198   199       107    48          351367542.00
    29       199   199        49   195          393618012.00
    30       199   200       196   149          353488020.00
    31       200   201       150   108          349680738.00
    32       201   201       109   201          352880268.00
    33       202   202         1   154          249492090.00
    34       202   203       155    15          249470688.00
    35       203   203        16   153          252663798.00
    36       203   203       154   203          257648508.00
    37       204   204         1   155          260323836.00
    38       204   205       156    50          249839118.00
    39       205   205        51   157          268363644.00
    40       205   206       158    63          252660990.00
    41       206   206        64   153          186860190.00
    42       206   206       154   195          195007122.00
    43       206   207       196    16          179194424.00
    44       207   207        17    41          178712540.00
    45       207   207        42   100          179740250.00
    46       207   207       101   121          193978390.00
    47       207   207       122   130          184921650.00
    48       207   207       131   139          208413060.00
    49       207   207       140   155          128995500.00
    50       207   207       156   182          129297960.00
    51       207   207       183   186          128217720.00
    52       207   207       187   193          145113300.00
    53       207   207       194   200          132643920.00
    54       207   208       201    41          128204820.00
    55       208   208        42    57          131727320.00
    56       208   208        58    74          128466790.00
    57       208   208        75    92           90865720.00
    58       208   208        93   110           91315980.00
    59       208   208       111   123           96514440.00
    60       208   208       124   134           92204970.00
    61       208   208       135   143          110068440.00
    62       208   208       144   148          101840880.00
    63       208   208       149   153          122584740.00
    64       208   208       154   158          102215220.00
    65       208   208       159   161           78179280.00
    66       208   208       162   172           72722070.00
    67       208   208       173   183          124659060.00
    68       208   208       184   195          114098160.00
    69       208   208       196   199           82106760.00
    70       208   208       200   203           85679760.00
    71       208   208       204   207           96575980.00
    73       208   208       208   207           29093900.00
 totalcost check=   26113434551.0000      ntasks=                    72

 cpu time for derivative 2e integral statistics :      0.92 sec

 
   end of statistics output by subroutine kunz .
                     ***
 
          Overall gridpoints after grid construction =        677162

 Integrated ground state density     :   164.0000066347648    


          ------------------------------------------------
           cartesian gradient of the energy (hartree/bohr)
          ------------------------------------------------

  ATOM      1 y           2 h           3 c           4 c           5 c 
dE/dx  0.2331298D-02 -0.3222379D-02 -0.3588456D-02 -0.7067460D-02  0.3194508D-02
dE/dy  0.3551287D-03 -0.1362758D-02 -0.4588029D-02 -0.1415578D-02  0.3584888D-02
dE/dz -0.6830703D-03  0.1011452D-02 -0.1757512D-02  0.2825045D-02 -0.6783862D-02

  ATOM      6 c           7 c           8 c           9 c          10 c 
dE/dx -0.5996885D-02  0.2045163D-01  0.3351261D-02  0.1999947D-02  0.7435097D-02
dE/dy -0.1433260D-03  0.1148869D-01 -0.3666835D-02 -0.4214639D-02  0.4847128D-02
dE/dz  0.7892743D-02 -0.8354140D-02  0.1572763D-02  0.4006644D-02 -0.2308417D-02

  ATOM     11 c          12 c          13 y          14 h          15 c 
dE/dx  0.6571918D-03 -0.2254530D-01 -0.2040476D-02  0.2945005D-02 -0.8116579D-02
dE/dy  0.3820712D-02 -0.7212439D-02  0.3569719D-03  0.1697214D-02 -0.6799245D-02
dE/dz -0.2646592D-02 -0.2928264D-02  0.2839272D-03 -0.8329288D-03 -0.6556886D-02

  ATOM     16 c          17 c          18 c          19 c          20 c 
dE/dx -0.3472153D-03 -0.2018715D-02  0.3100000D-01  0.3028502D-01  0.9967097D-02
dE/dy -0.5138723D-03 -0.7785836D-02  0.2046597D-01  0.2545382D-01  0.4392557D-02
dE/dz  0.2318330D-02 -0.3637116D-02  0.8190203D-02  0.1278051D-01 -0.9533252D-03

  ATOM     21 c          22 c          23 c          24 c          25 h 
dE/dx -0.1611734D-01 -0.8606735D-02  0.1946218D-02  0.1904345D-01 -0.2494124D-03
dE/dy  0.8410461D-03  0.2473720D-02 -0.7461590D-02  0.1609749D-01 -0.1074373D-02
dE/dz -0.3960316D-02 -0.1073998D-01  0.1052346D-01 -0.1003778D-01  0.2221300D-02

  ATOM     26 h          27 h          28 h          29 h          30 h 
dE/dx  0.1213348D-02  0.1709561D-02 -0.6099521D-03 -0.1093938D-02  0.6995259D-03
dE/dy -0.3819220D-04  0.5183335D-03  0.1602800D-02 -0.3043298D-03  0.1235590D-02
dE/dz  0.1203861D-02 -0.7339776D-03 -0.1770785D-02 -0.1097060D-02  0.1200681D-03

  ATOM     31 h          32 h          33 h          34 h          35 h 
dE/dx -0.6258322D-02 -0.6364148D-03  0.6046347D-02  0.8500475D-03 -0.1429765D-02
dE/dy -0.3222148D-02 -0.3569267D-02 -0.2666412D-02 -0.2043301D-02 -0.1320541D-02
dE/dz  0.3319529D-02  0.4319518D-02  0.5677840D-02  0.2116600D-02  0.2384246D-03

  ATOM     36 h          37 h          38 h          39 h          40 h 
dE/dx  0.8884862D-03 -0.2707315D-03 -0.1733717D-02 -0.1772369D-01 -0.1256904D-02
dE/dy  0.4966562D-03 -0.9516638D-03 -0.8700120D-03 -0.1884908D-01  0.1766720D-03
dE/dz  0.2295470D-02 -0.1653371D-02  0.3512125D-02 -0.2955827D-01  0.2667739D-02

  ATOM     41 h          42 h          43 h          44 h 
dE/dx -0.2908746D-01 -0.6961585D-02 -0.6644860D-02  0.7606365D-02
dE/dy -0.1618776D-01 -0.1876473D-02 -0.3535801D-02  0.1826538D-02
dE/dz  0.1355900D-01 -0.1032532D-02  0.3582713D-02  0.1776058D-02
 
 resulting FORCE  (fx,fy,fz) = (-.290D-05,0.584D-04,-.109D-04)
 resulting MOMENT (mx,my,mz) = (-.631D-04,-.195D-03,0.441D-03)


 exx =       0.217004 eyy =       0.127118 ezz =       0.175046
 eyz =       0.010491 exz =      -0.049143 exy =       0.068043


 **********************************************************************
  |maximum component of gradient| : 0.30999997E-01  (atom 18 c )       
   gradient norm                  : 0.99096445E-01
 **********************************************************************

 <getgrd> : data group $grad  is missing 

   ***  cartesian gradients written onto <gradient>  ***


     --- calculation of the energy gradient finished ---


    rdgrad.all profiling
  --------------------------------------------------------------------
             module   cpu total (s)       %  wall total (s)       %

          rdgrad.all            35.3  100.00           280.6  100.00
        rdgrad.input             1.3    3.63            10.2    3.63
           bound.etc             0.1    0.37             1.0    0.37
            dft.prep             0.3    0.72             2.0    0.72
       before.oneder             1.1    3.02             7.5    2.67
        input.oneint             0.1    0.26             0.7    0.26
       input.moinput             0.8    2.32             5.9    2.10
      moinput.orttst             0.3    0.71             1.4    0.49
              oneder             1.4    4.01            11.3    4.04
       rdgrad.twoder             4.5   12.70            35.9   12.79
              lpdrc1             0.7    1.92             5.4    1.93
          DRI-J.near             1.4    3.87            10.9    3.89
      rdgrad.grdfinp             7.8   22.11            62.5   22.25
           dft total             7.8   22.04            62.3   22.19
    xc contributions             7.8   22.04            62.3   22.19
 


    ------------------------------------------------------------------------
         total  cpu-time :  38.99 seconds
         total wall-time :  5 minutes and 10 seconds
    ------------------------------------------------------------------------

   ****  rdgrad : all done  ****


    2018-01-28 16:16:44.215 

 rdgrad ended normally
fine, there is no data group "$actual step"
next step = relax

 statpt (c-8-253.local) : TURBOMOLE V7.2 ( 21287 ) 3 Jul 2017 at 09:33:16
 Copyright (C) 2017 TURBOMOLE GmbH, Karlsruhe


    2018-01-28 16:16:45.798 



                           this is S T A T P T   


                     hessian and coordinate update for
                          stationary point search 

                     by barbara unterreiner, marek sierka,
                           and reinhart ahlrichs

                          quantum chemistry group
                          universitaet  karlsruhe
                                  germany




              +--------------------------------------------------+
              | Atomic coordinate, charge and isotop information |
              +--------------------------------------------------+

                    atomic coordinates            atom    charge  isotop
         -1.01101183    0.17869832   -3.12144616    y     39.000     0
         -2.05664946   -1.06202585    0.61990424    h      1.000     0
         -3.29150588    3.30961445   -6.24040318    c      6.000     0
         -5.20761104    2.54032678   -4.50664935    c      6.000     0
         -4.59511570    3.59277979   -2.11631857    c      6.000     0
         -2.31961696    4.98370599   -2.33606700    c      6.000     0
         -1.47924991    4.82330516   -4.90890821    c      6.000     0
         -0.76182564   -4.80031411   -3.95860644    c      6.000     0
          1.74772449   -3.88760622   -4.25896250    c      6.000     0
          1.80244915   -2.27891011   -6.42971283    c      6.000     0
         -0.68822983   -2.21741249   -7.46434607    c      6.000     0
         -2.29803327   -3.76821379   -5.93043696    c      6.000     0
          1.06606966   -0.16163812    3.09667033    y     39.000     0
          2.11320353    1.09253829   -0.64307910    h      1.000     0
          3.19527567   -3.34714057    6.29921560    c      6.000     0
          5.16084793   -2.58550868    4.62342201    c      6.000     0
          4.64495616   -3.64237930    2.19124128    c      6.000     0
          2.35134466   -4.97659066    2.34276278    c      6.000     0
          1.44200486   -4.77935599    4.93045928    c      6.000     0
          0.83027360    4.80758993    3.89989838    c      6.000     0
         -1.71068160    3.90386762    4.18071832    c      6.000     0
         -1.79167870    2.32181212    6.33918790    c      6.000     0
          0.69736176    2.25335876    7.42701260    c      6.000     0
          2.32007847    3.81376026    5.88238718    c      6.000     0
         -1.41376758   -6.06500882   -2.46078029    h      1.000     0
[...]
         -3.28306727    4.32195756    3.03749067    h      1.000     0
          1.28557452    1.27928372    9.19921242    h      1.000     0
         -6.83630796    1.38366170   -5.06112520    h      1.000     0
         -1.40536694    5.99335785   -0.87438118    h      1.000     0
         -3.21507792    2.91392009   -8.31374496    h      1.000     0
         -5.73352431    3.29133286   -0.46070506    h      1.000     0
          1.37780611   -5.98854259    0.86339245    h      1.000     0
          3.14100417   -2.94409609    8.32774099    h      1.000     0
         -0.22735068   -5.72957958    5.69180527    h      1.000     0
          4.33357711    4.09742967    6.23257438    h      1.000     0
          0.15430461    5.73672092   -5.71881634    h      1.000     0
         -4.28662288   -4.08045874   -6.29510934    h      1.000     0
 
       center of nuclear mass  :    0.00065746    0.00041368   -0.00013412
       center of nuclear charge:    0.00056416    0.00035619   -0.00011542

              +--------------------------------------------------+
              |               basis set information              |
              +--------------------------------------------------+

              we will work with the 1s 3p 5d 7f 9g ... basis set
              ...i.e. with spherical basis functions...

   type   atoms  prim   cont   basis
   ---------------------------------------------------------------------------
    y        2     57     31   def2-SVP   [5s3p2d1f|7s6p5d1f]
    h       22      7      5   def2-SVP   [2s1p|4s1p]
    c       20     24     14   def2-SVP   [3s2p1d|7s4p1d]
   ---------------------------------------------------------------------------
   total:   44    748    452
   ---------------------------------------------------------------------------

   total number of primitive shells          :   36
   total number of contracted shells         :  208
   total number of cartesian basis functions :  482
   total number of SCF-basis functions       :  452


 integral neglect threshold       :  0.69E-11
 integral storage threshold THIZE :  0.10E-04
 integral storage threshold THIME :         5

 number of unique ecp types :                     1
 RI-J AUXILIARY BASIS SET information:

              we will work with the 1s 3p 5d 7f 9g ... basis set
              ...i.e. with spherical basis functions...

   type   atoms  prim   cont   basis
   ---------------------------------------------------------------------------
    y        2     99     89   def2-SVP   [8s5p5d2f3g|11s5p5d3f3g]
    h       22     16     11   def2-SVP   [3s1p1d|5s2p1d]
    c       20     70     49   def2-SVP   [6s4p3d1f1g|12s5p4d2f1g]
   ---------------------------------------------------------------------------
   total:   44   1950   1400
   ---------------------------------------------------------------------------

   total number of primitive shells          :   59
   total number of contracted shells         :  456
   total number of cartesian basis functions : 1720
   total number of SCF-basis functions       : 1400


 symmetry group of the molecule :   c1 

 the group has the following generators :
   c1(z)

    1 symmetry operations found

 there are 1 real representations :   a   

 maximum number of shells which are related by symmetry :  1


    mo occupation :
   irrep   mo's   occupied
    a      452       82
 
 number of basis functions   :                    452
 number of occupied orbitals :                     82
 
  
           ------------------
           density functional
           ------------------
 TPSS global hybrid functional
 exchange:    9/10 (LDA+TPSS) + 1/10 HF
 correlation: LDA (PW) + TPSS

 iterations will be done with small grid
  
 spherical integration : Lebedev's spherical grid
 spherical gridsize    :                     5
    i.e. gridpoints    :                   590
 value for diffuse not defined
 radial integration    : Chebyshev 2nd kind (scaling 3)
 radial gridsize       :                     8
 integration cells     :                    44
 partition function    : becke
 partition sharpness   :                     3
  

 biggest AO integral is expected to be     3.528781981
  
           ------------------------
               RI-J - INFORMATION
           ------------------------
 Memory core needed for (P|Q) and Cholesky      8 MByte on GA
 Memory core minimum needed except           1 MByte 
  
 ****************************************
 Memory allocated for RI-J 1 MByte
 plus additional 8 MByte (pqmatrix)  (GA)
 ****************************************
                                            
allocating par_xzuhag(  188.91 MB)

          ------------------------
          nuclear repulsion energy  :   1829.77710465    
          ------------------------

  _________________________________
 |                                 |
 |         DFTD3 V3.1 Rev 0        |
 | S.Grimme, University Bonn       |
 |            June  2014           |
 |   see standalone version        |
 |       dftd3 -h for options      |
 |_________________________________|
 
 Please cite DFT-D3 work done with this code as:
 S. Grimme, J. Antony, S. Ehrlich and H. Krieg,
 J. Chem. Phys, 132 (2010), 154104.
 If used with BJ-damping cite also
 S. Grimme, S. Ehrlich and L. Goerigk,
 J. Comput. Chem. 32 (2011), 1456-1465
 For DFT-D2 the reference is
 S. Grimme, J. Comput. Chem., 27 (2006), 1787-1799
 
C6 coefficients used:
                     2  C6 for element                      1
Z=  1 CN= 0.912     C6(AA)=    3.03
Z=  1 CN= 0.000     C6(AA)=    7.59
                     5  C6 for element                      6
Z=  6 CN= 0.000     C6(AA)=   49.11
Z=  6 CN= 0.987     C6(AA)=   43.25
Z=  6 CN= 1.998     C6(AA)=   29.36
Z=  6 CN= 2.999     C6(AA)=   25.78
Z=  6 CN= 3.984     C6(AA)=   18.21
                     3  C6 for element                     39
Z= 39 CN= 0.000     C6(AA)= 2365.89
Z= 39 CN= 1.915     C6(AA)= 1132.30
Z= 39 CN= 2.890     C6(AA)=  451.08

#           XYZ [au]              R0(AA) [Ang.]  CN          C6(AA)     C8(AA)   C10(AA) [au]
  1  -1.05204   0.17896  -3.13535   y   2.110 11.485       451.1     86005.2  20087594.1
  2  -1.99252  -1.03611   0.60601   h   1.091  1.723         3.0        36.6       541.9
  3  -3.28164   3.32843  -6.29902   c   1.455  4.096        18.3       528.2     18713.7
  4  -5.18540   2.52247  -4.58586   c   1.455  4.104        18.3       528.1     18710.1
  5  -4.60795   3.53856  -2.16694   c   1.455  4.099        18.3       528.2     18712.1
  6  -2.33635   4.95024  -2.38124   c   1.455  4.097        18.3       528.2     18712.9
  7  -1.51340   4.81231  -4.93462   c   1.455  4.095        18.3       528.2     18714.0
  8  -0.81641  -4.73600  -3.94679   c   1.455  4.099        18.3       528.2     18712.2
  9   1.69990  -3.84943  -4.23122   c   1.455  4.097        18.3       528.2     18713.2
 10   1.78696  -2.29095  -6.41726   c   1.455  4.094        18.3       528.2     18714.3
 11  -0.66958  -2.22533  -7.48980   c   1.455  4.096        18.3       528.2     18713.4
 12  -2.28631  -3.72013  -5.95284   c   1.455  4.105        18.3       528.1     18709.8
 13   1.05585  -0.17670   3.13461   y   2.110 11.485       451.1     86005.2  20087594.1
 14   1.99812   1.03670  -0.60724   h   1.091  1.723         3.0        36.6       541.9
 15   3.22435  -3.35398   6.31267   c   1.455  4.096        18.3       528.2     18713.6
 16   5.15223  -2.56076   4.62048   c   1.455  4.104        18.3       528.1     18710.0
 17   4.58991  -3.56616   2.19350   c   1.455  4.100        18.3       528.2     18712.0
 18   2.30395  -4.95813   2.38185   c   1.455  4.097        18.3       528.2     18712.9
 19   1.45686  -4.81893   4.92712   c   1.455  4.095        18.3       528.2     18714.1
 20   0.84010   4.74459   3.91652   c   1.455  4.099        18.3       528.2     18712.3
 21  -1.67469   3.86468   4.23301   c   1.455  4.097        18.3       528.2     18713.1
 22  -1.74166   2.32042   6.43001   c   1.455  4.095        18.3       528.2     18714.1
 23   0.72594   2.25749   7.47727   c   1.455  4.096        18.3       528.2     18713.5
 24   2.32902   3.73908   5.91371   c   1.455  4.104        18.3       528.1     18710.0
 25  -1.50557  -5.99448  -2.47002   h   1.091  1.012         3.1        37.3       552.3
 26   3.29636  -4.31065  -3.02145   h   1.091  1.013         3.1        37.3       552.2
 27   3.46389  -1.35697  -7.16971   h   1.091  1.011         3.1        37.3       552.4
 28  -1.21261  -1.23692  -9.21127   h   1.091  1.011         3.1        37.3       552.3
 29   5.73470  -3.32573   0.49899   h   1.091  1.012         3.1        37.3       552.3
 30   6.80860  -1.43827   5.11513   h   1.091  1.011         3.1        37.3       552.3
 31  -3.41216   1.39501   7.20699   h   1.091  1.011         3.1        37.3       552.4
 32   1.51659   5.99168   2.42443   h   1.091  1.012         3.1        37.3       552.3
 33  -3.28307   4.32196   3.03749   h   1.091  1.013         3.1        37.3       552.2
 34   1.28557   1.27928   9.19921   h   1.091  1.011         3.1        37.3       552.3
 35  -6.83631   1.38366  -5.06113   h   1.091  1.011         3.1        37.3       552.3
 36  -1.40537   5.99336  -0.87438   h   1.091  1.013         3.1        37.3       552.2
 37  -3.21508   2.91392  -8.31374   h   1.091  1.011         3.1        37.3       552.3
 38  -5.73352   3.29133  -0.46071   h   1.091  1.012         3.1        37.3       552.3
 39   1.37781  -5.98854   0.86339   h   1.091  1.013         3.1        37.3       552.2
 40   3.14100  -2.94410   8.32774   h   1.091  1.011         3.1        37.3       552.3
 41  -0.22735  -5.72958   5.69181   h   1.091  1.011         3.1        37.3       552.4
 42   4.33358   4.09743   6.23257   h   1.091  1.011         3.1        37.3       552.3
 43   0.15430   5.73672  -5.71882   h   1.091  1.011         3.1        37.3       552.4
 44  -4.28662  -4.08046  -6.29511   h   1.091  1.012         3.1        37.3       552.3

molecular C6(AA) [au] =     27197.10

           DFT-D V3
 DF tpssh                                             
 parameters
 s6       :    1.0000
 s8       :    1.2190
 rs6      :    1.2230
 rs18     :    1.0000
 alpha6   :   14.0000
 alpha8   :   16.0000
 k1-k3    :   16.0000    1.3333   -4.0000
 
 Edisp /kcal,au:   -27.6898 -0.04412647

 E6    /kcal :    -8.5700
 E8    /kcal :   -19.1198
 % E8        : 69.05
 nuclear repulsion energy                  =    1829.777104645
 empirical dispersive energy correction    =      -0.044126473
 nuclear repulsion + dispersion correction =    1829.732978172


         -----------------
         -S,T+V- integrals
         -----------------

 1e-integrals will be neglected if expon. factor < 0.693353E-12


          ----------------
          -ecp-  integrals
          ----------------
 
   Difference densities algorithm switched on.
   The maximal number of linear combinations of
   difference densities is                    20 .

 DIIS switched on: error vector is FDS-SDF
 Max. Iterations for DIIS is     :   4
 DIIS matrix (see manual) 
    Scaling factor of diagonals  :  1.200
    threshold for scaling factor :  0.000

 scf convergence criterion : increment of total energy < .1000000D-06
                  and increment of one-electron energy < .1000000D-03

  MOs are in ASCII format !


 automatic virtual orbital shift switched on 
      shift if e(lumo)-e(homo) <  2.0000000    


 reading orbital data $scfmo  from file mos
 orbital characterization : scfconv=7
 mo-orthogonalization by Cholesky decomposition

 DSCF restart information will be dumped onto file mos


 Starting SCF iterations

          Overall gridpoints after grid construction =        213216

 ITERATION  ENERGY          1e-ENERGY        2e-ENERGY     NORM[dD(SAO)]  TOL
   1  -851.76501134227    -4810.2666136     2128.7686241    0.000D+00 0.692D-11
                            Exc = -114.960383521     Coul =  2255.80255253    
                            exK = -12.0735449379    
                              N = 164.00169105    
                            current damping = 0.700
 
          max. resid. norm for Fia-block=  8.586D-05 for orbital     81a         
          max. resid. fock norm         =  1.474D-03 for orbital    452a         
          irrep a   : virtual orbitals shifted by    1.73579

 ITERATION  ENERGY          1e-ENERGY        2e-ENERGY     NORM[dD(SAO)]  TOL
   2  -851.76501149010    -4810.2664519     2128.7684622    0.378D-03 0.439D-11
                            Exc = -114.960379313      Eck =  2243.72884151    
                              N = 164.00169103    
                            current damping = 0.650
 
          Norm of current diis error: 0.79398E-03
          max. resid. norm for Fia-block=  6.621D-05 for orbital     81a         
          max. resid. fock norm         =  6.068D-04 for orbital    452a         
          irrep a   : virtual orbitals shifted by    1.74357

 ENERGY CONVERGED !

          Overall gridpoints after grid construction =        676850

 ITERATION  ENERGY          1e-ENERGY        2e-ENERGY     NORM[dD(SAO)]  TOL
   3  -851.76438963103    -4810.2664061     2128.7690383    0.537D-04 0.309D-11
                            Exc = -114.959756222      Eck =  2243.72879457    
                              N = 164.00007085    
                            current damping = 0.700
 
          Norm of current diis error: 0.62463E-03
          max. resid. norm for Fia-block=  5.520D-05 for orbital     81a         
          max. resid. fock norm         =  2.391D-04 for orbital    452a         

 End of SCF iterations

   convergence criteria satisfied after    3 iterations


                  ------------------------------------------ 
                 |  total energy      =   -851.76438963103  |
                  ------------------------------------------ 
                 :  kinetic energy    =    790.31837952452  :
                 :  potential energy  =  -1642.08276915555  :
                 :  virial theorem    =      1.92786032047  :
                 :  wavefunction norm =      1.00000000000  :
                  .......................................... 


 orbitals $scfmo  will be written to file mos

    irrep                 78a         79a         80a         81a         82a   
 eigenvalues H         -0.23415    -0.22790    -0.22712    -0.22586    -0.21405
            eV          -6.3717     -6.2015     -6.1802     -6.1461     -5.8247
 occupation              2.0000      2.0000      2.0000      2.0000      2.0000 

    irrep                 83a         84a         85a         86a         87a   
 eigenvalues H         -0.05864    -0.04377    -0.02360    -0.00721     0.00344
            eV          -1.5957     -1.1909     -0.6423     -0.1963      0.0936
 
 
 
 
 ==============================================================================
                           electrostatic moments
 ==============================================================================

 reference point for electrostatic moments:    0.00000   0.00000   0.00000

 
              nuc           elec       ->  total
 ------------------------------------------------------------------------------
                          charge      
 ------------------------------------------------------------------------------
         164.000000    -164.000000       0.000000
 
 ------------------------------------------------------------------------------
                       dipole moment  
 ------------------------------------------------------------------------------
   x       0.017365      -0.016224       0.001141
   y       0.015053      -0.014135       0.000919
   z      -0.004685       0.004395      -0.000290
 
   | dipole moment | =     0.0015 a.u. =     0.0038 debye 
 
 ------------------------------------------------------------------------------
                     quadrupole moment
 ------------------------------------------------------------------------------
  xx    1247.531524   -1367.862748    -120.331224
  yy    2007.797001   -2140.211996    -132.414995
  zz    3994.279749   -4114.666875    -120.387126
  xy    -737.235637     744.689214       7.453577
  xz    1063.865612   -1064.154613      -0.289001
  yz     145.413131    -148.958940      -3.545809
 
     1/3  trace=    -124.377782
     anisotropy=      18.707791
 
 ==============================================================================
 

    ridft profiling
  --------------------------------------------------------------------
             module   cpu total (s)       %  wall total (s)       %

               RIDFT            47.5  100.00           372.7  100.00
         Ridft_b_scf             4.3    9.14            32.8    8.81
        b_scf_prelim             0.1    0.16             0.6    0.15
        b_scf_molinp             0.5    1.15             4.4    1.17
         b_scf_init0             0.1    0.29             1.1    0.30
        b_scf_auxbas             0.2    0.51             1.9    0.52
      b_scf_symmetry             0.0    0.02             0.1    0.02
         b_scf_cosmo             0.0    0.00             0.0    0.00
        b_scf_params             0.6    1.16             4.4    1.19
          b_scf_ri-j             1.4    2.92            10.0    2.68
    b_scf_ri-j_auxpq             1.3    2.68             9.0    2.42
     ri-j_auxpq_chol             0.4    0.94             2.4    0.65
         b_scf_1elec             0.8    1.67             6.3    1.70
       b_scf_moinput             0.6    1.21             3.9    1.05
     prepare.moinput             0.2    0.33             1.2    0.33
     moinput_orthmos             0.2    0.42             0.9    0.24
    b_scf_dft-dstmax             0.0    0.00             0.0    0.00
           Ridft_scf            43.0   90.46           338.4   90.78
          Scf_b_loop             0.4    0.93             3.5    0.95
                noga             0.0    0.02             0.1    0.02
            Scf_loop            42.3   88.89           332.4   89.18
     scf_loop_mkdmat             1.0    2.12             8.1    2.16
       scf_loop_ri-j             5.3   11.18            42.5   11.41
    ri-j_near_lpdrc1             0.2    0.40             1.5    0.39
    ri-j_near_lpdrc2             0.2    0.42             1.6    0.42
       scf_loop_ex-K            15.4   32.31           122.9   32.96
         scf_loop_k1            13.5   28.47           108.2   29.04
     scf_loop_symcar             0.5    1.11             4.2    1.12
      scf_loop_dfmat             0.2    0.38             1.5    0.40
        scf_loop_dft            17.3   36.30           137.9   37.01
        dft_grid_con             2.9    6.04            23.0    6.16
         dft_xc_eval            12.9   27.13           103.0   27.65
     scf_loop_energy             0.1    0.23             0.9    0.24
     scf_loop_mkfock             0.1    0.13             0.5    0.14
       scf_loop_diis             1.2    2.45             7.4    1.99
       scf_loop_diag             1.3    2.67             6.6    1.76
     scf_loop_modump             0.0    0.00             0.0    0.00
          Scf_a_loop             0.3    0.60             2.3    0.61
         Ridft_a_scf             0.2    0.33             1.3    0.34
         a_scf_fanal             0.1    0.24             0.9    0.25
 


    ------------------------------------------------------------------------
         total  cpu-time :  51.39 seconds
         total wall-time :  6 minutes and 44 seconds
    ------------------------------------------------------------------------

   ****  ridft : all done  ****


    2018-01-28 22:33:35.978 

 ridft ended normally
fine, there is no data group "$actual step"
next step = rdgrad
 energy change  : actual value =  -0.8217E-06 threshold =   0.1000E-05
 geom. gradient : actual value =   0.2141E-03 threshold =   0.1000E-02

CONVERGENCY CRITERIA FULFILLED IN CYCLE 21

