
OPTIMIZATION CYCLE 12
Tue Jan 23 16:11:36 PST 2018
STARTING rdgrad ON 8 PROCESSORS!
RUNNING PROGRAM /beegfs/modfac/apps/TURBOMOLE/7.2-official/bin/em64t-unknown-linux-gnu_smp/rdgrad_mpi.
PLEASE WAIT UNTIL rdgrad HAS FINISHED.
 c-8-39.local ( 1 ) 
 c-8-39.local ( 2 ) 
 c-8-39.local ( 3 ) 
 c-8-39.local ( 4 ) 
 c-8-39.local ( 5 ) 
 c-8-39.local ( 6 ) 
 c-8-39.local ( 7 ) 
 this is node-proc. number 0 running on node c-8-39.local
 the total number of node-proc. spawned is   8
 GA version: using    8 (total) on    1 nhosts.
 operating system is UNIX !

 rdgrad (c-8-39.local) : TURBOMOLE V7.2 ( 21287 ) 3 Jul 2017 at 09:36:10
 Copyright (C) 2017 TURBOMOLE GmbH, Karlsruhe


    2018-01-23 16:11:37.547 

 ********** GlobalArray OPTION SETTINGS : **********
 *****************************************************

 gradient run will be profiled !


 UHF modus switched on !


                                 r d g r a d

                          gradient for ridft program 

                        by K.Eichkorn, O.Treutler, H.Oehm, 
                             M.Haeser and R.Ahlrichs
                  (Chemical Physics Letters 242 (1995) 652-660)
                    parallel version: M.v.Arnim  &  R.Ahlrichs
                            quantum chemistry group
                             university  karlsruhe
                                   germany




                          References             
                                                 
          Density Functional:                              
              O. Treutler and R. Ahlrichs                      
              Efficient Molecular Numerical Integration Schemes
              J. chem. Phys. 102: 346 (1995)                   
          Parallel Version:                                
              Performance of parallel TURBOMOLE for Density    
              Functional Calculations                          
              M. v.Arnim and R. Ahlrichs                      
              J. comp. Chem. 19: 1746 (1998)                   
          RI-J Method:                                     
              Auxiliary Basis Sets to approximate Coulomb      
              Potentials                                       
              Chem. Phys. Lett. 240: 283 (1995)                
              K. Eichkorn, O. Treutler, H. Oehm, M. Haeser     
              and R. Ahlrichs                                  
              Chem. Phys. Lett. 242: 652 (1995)                
                                                           
              Auxiliary Basis Sets for Main Row Atoms and their
              Use to approximate Coulomb Potentials            
              K. Eichkorn, F. Weigend, O. Treutler and         
              R. Ahlrichs                                      
              Theo. Chem. Acc. 97: 119 (1997)                   
                                         



 integral neglect threshold       :  0.69E-11
 integral storage threshold THIZE :  0.10E-04
 integral storage threshold THIME :         5

 number of unique ecp types :                     1

          ------------------
          -ecp- potential(s)
          ------------------

 center   1  y def2-ecp  (ecp no.  1)  ncore = 28,  lmax = 3

 center  13  y def2-ecp  (ecp no.  2)  ncore = 28,  lmax = 3
  (equal to center   1 y )
 TPSS global hybrid functional
 exchange:    9/10 (LDA+TPSS) + 1/10 HF
 correlation: LDA (PW) + TPSS
 A Hybrid-DFT calculation using the RI-J approximation will be carried out.
  
  
 AUXILIARY BASIS SET information:

 symmetry group of the molecule :   c1 

 the group has the following generators :
   c1(z)

    1 symmetry operations found

 there are 1 real representations :   a   

 maximum number of shells which are related by symmetry :  1


    mo occupation :
   irrep   mo's   occupied
    a      452       83
 
 number of basis functions   :                    452
 number of occupied orbitals :                     83
 

 biggest AO integral is expected to be     3.528781981
  
           ------------------
           density functional
           ------------------
 TPSS global hybrid functional
 exchange:    9/10 (LDA+TPSS) + 1/10 HF
 correlation: LDA (PW) + TPSS

 iterations will be done with small grid
  
 spherical integration : Lebedev's spherical grid
 spherical gridsize    :                     5
    i.e. gridpoints    :                   590
 value for diffuse not defined
 radial integration    : Chebyshev 2nd kind (scaling 3)
 radial gridsize       :                     8
 integration cells     :                    44
 partition function    : becke
 partition sharpness   :                     3
  
  
           ------------------------
             RDGRAD - INFORMATION
           ------------------------
  
 Threshold for integral neglect (rithr1): 1E-10
 Threshold for integral neglect (rithr2): 1E-10
     
 ****************************************
 Local memory allocated for RDGRAD: 4 MiB
 ****************************************
                                            
 PQ decomposition by parallel Cholesky:                  1400  basis functions.

 nuclear repulsion energy  :   1827.84995635    

  MOs are in ASCII format !


 reading orbital data $uhfmo_alpha  from file alpha
 orbital characterization : scfconv=7

 reading orbital data $uhfmo_beta  from file beta
 orbital characterization : scfconv=7

    ----------------------------------------
     S+T+V CONTRIBUTIONS TO ENERGY GRADIENT 
    ----------------------------------------

 1e-integral 1st. derivatives will be neglected if expon. factor < 0.138904E-13

  _________________________________
 |                                 |
 |         DFTD3 V3.1 Rev 0        |
 | S.Grimme, University Bonn       |
 |            June  2014           |
 |   see standalone version        |
 |       dftd3 -h for options      |
 |_________________________________|
 
 Please cite DFT-D3 work done with this code as:
 S. Grimme, J. Antony, S. Ehrlich and H. Krieg,
 J. Chem. Phys, 132 (2010), 154104.
 If used with BJ-damping cite also
 S. Grimme, S. Ehrlich and L. Goerigk,
 J. Comput. Chem. 32 (2011), 1456-1465
 For DFT-D2 the reference is
 S. Grimme, J. Comput. Chem., 27 (2006), 1787-1799
 
C6 coefficients used:
                     2  C6 for element                      1
Z=  1 CN= 0.912     C6(AA)=    3.03
Z=  1 CN= 0.000     C6(AA)=    7.59
                     5  C6 for element                      6
Z=  6 CN= 0.000     C6(AA)=   49.11
Z=  6 CN= 0.987     C6(AA)=   43.25
Z=  6 CN= 1.998     C6(AA)=   29.36
Z=  6 CN= 2.999     C6(AA)=   25.78
Z=  6 CN= 3.984     C6(AA)=   18.21
                     3  C6 for element                     39
Z= 39 CN= 0.000     C6(AA)= 2365.89
Z= 39 CN= 1.915     C6(AA)= 1132.30
Z= 39 CN= 2.890     C6(AA)=  451.08

#           XYZ [au]              R0(AA) [Ang.]  CN          C6(AA)     C8(AA)   C10(AA) [au]
  1  -1.01551   0.16544  -3.08667   y   2.110 11.336       451.1     86005.2  20087594.1
  2  -2.06849  -1.09279   0.62195   h   1.091  1.711         3.0        36.6       541.9
  3  -3.25673   3.30672  -6.25199   c   1.455  4.095        18.3       528.2     18714.2
  4  -5.19095   2.54706  -4.54394   c   1.455  4.077        18.3       528.5     18722.7
  5  -4.62257   3.59163  -2.13861   c   1.455  4.065        18.3       528.6     18729.6
  6  -2.34075   4.98171  -2.34721   c   1.455  4.075        18.3       528.5     18723.9
  7  -1.48495   4.80853  -4.89359   c   1.455  4.083        18.3       528.4     18719.6
  8  -0.77083  -4.81918  -3.94596   c   1.455  4.065        18.3       528.7     18729.6
  9   1.73735  -3.91383  -4.21686   c   1.455  4.075        18.3       528.5     18723.8
 10   1.82086  -2.31491  -6.38102   c   1.455  4.083        18.3       528.4     18719.7
 11  -0.65010  -2.24560  -7.44293   c   1.455  4.094        18.3       528.2     18714.4
 12  -2.25328  -3.78706  -5.92986   c   1.455  4.077        18.3       528.5     18722.8
 13   1.03691  -0.19640   3.08593   y   2.110 11.337       451.1     86005.2  20087594.1
 14   2.09132   1.05972  -0.62336   h   1.091  1.711         3.0        36.6       541.9
 15   3.22168  -3.36448   6.26574   c   1.455  4.094        18.3       528.2     18714.4
 16   5.17836  -2.61729   4.57798   c   1.455  4.077        18.3       528.5     18722.9
 17   4.62351  -3.65026   2.16459   c   1.455  4.065        18.3       528.6     18729.5
 18   2.32757  -5.02086   2.34799   c   1.455  4.076        18.3       528.5     18723.6
 19   1.44966  -4.84689   4.88685   c   1.455  4.083        18.3       528.4     18719.5
 20   0.80950   4.79493   3.91492   c   1.455  4.064        18.3       528.7     18729.8
 21  -1.69706   3.89647   4.21903   c   1.455  4.074        18.3       528.5     18724.2
 22  -1.76004   2.31076   6.39348   c   1.455  4.083        18.3       528.4     18719.7
 23   0.72249   2.24286   7.42873   c   1.455  4.095        18.3       528.2     18714.2
 24   2.31198   3.77186   5.88862   c   1.455  4.077        18.3       528.5     18722.6
 25  -1.46109  -6.05528  -2.45050   h   1.091  1.011         3.1        37.3       552.3
 26   3.32500  -4.35706  -2.98892   h   1.091  1.013         3.1        37.3       552.2
 27   3.49377  -1.36814  -7.12338   h   1.091  1.011         3.1        37.3       552.4
 28  -1.20856  -1.22620  -9.14288   h   1.091  1.012         3.1        37.3       552.3
 29   5.75019  -3.38960   0.46059   h   1.091  1.011         3.1        37.3       552.3
 30   6.82520  -1.47419   5.05860   h   1.091  1.011         3.1        37.3       552.4
 31  -3.42667   1.37249   7.16047   h   1.091  1.011         3.1        37.3       552.4
 32   1.48601   6.01961   2.40395   h   1.091  1.011         3.1        37.3       552.3
 33  -3.29712   4.33566   3.00568   h   1.091  1.013         3.1        37.3       552.2
 34   1.29771   1.23353   9.12906   h   1.091  1.012         3.1        37.3       552.3
 35  -6.83235   1.38861  -5.00597   h   1.091  1.011         3.1        37.3       552.4
 36  -1.40040   6.00205  -0.83060   h   1.091  1.013         3.1        37.3       552.2
 37  -3.17311   2.85502  -8.25945   h   1.091  1.012         3.1        37.3       552.3
 38  -5.73038   3.32496  -0.42330   h   1.091  1.011         3.1        37.3       552.3
 39   1.39205  -6.02849   0.82002   h   1.091  1.013         3.1        37.3       552.2
 40   3.12275  -2.91702   8.27349   h   1.091  1.012         3.1        37.3       552.3
 41  -0.24261  -5.74375   5.64709   h   1.091  1.011         3.1        37.3       552.4
 42   4.32260   4.11673   6.18557   h   1.091  1.011         3.1        37.3       552.4
 43   0.19168   5.71884  -5.67239   h   1.091  1.011         3.1        37.3       552.4
 44  -4.26001  -4.13322  -6.25080   h   1.091  1.011         3.1        37.3       552.4

molecular C6(AA) [au] =     27202.76

           DFT-D V3
 DF tpssh                                             
 parameters
 s6       :    1.0000
 s8       :    1.2190
 rs6      :    1.2230
 rs18     :    1.0000
 alpha6   :   14.0000
 alpha8   :   16.0000
 k1-k3    :   16.0000    1.3333   -4.0000
 
 Edisp /kcal,au:   -27.7121 -0.04416211

 E6    /kcal :    -8.5638
 E8    /kcal :   -19.1483
 % E8        : 69.10
 
 doing analytical gradient O(N^2) ...
 
 |G|=  2.353319739091472E-002

 setting up bound for integral derivative estimation

 increment for numerical differentiation : 0.00050000

 biggest AO integral is expected to be     3.528781981
 biggest cartesian 1st derivative AO integral is expected to be     5.507249476

 biggest 1-particle AO density matrix element is expected to be    2.0856657549

 setting up bound for integral derivative estimation

 increment for numerical differentiation : 0.00050000

 biggest AO integral is expected to be     3.528781981
 biggest cartesian 1st derivative AO integral is expected to be     5.507249476

 2e-integral 1st. derivatives will be neglected if expon. factor < 0.100000E-06
 outer boundary for 2e-integral derivative neglection is 0.383142E-08


 performing derivative 2e integral batch statistics 

 #        istart  iend      jstart  jend  cost
     1         1   133         1    31          959876664.00
     2       133   142        32   117          960312870.00
     3       142   151       118    45          963491352.00
     4       151   157        46    76          959896617.00
     5       157   162        77   117          960139971.00
     6       162   174       118   128          961402035.00
     7       174   183       129    29          965419032.00
     8       183   183        30   129          975386040.00
     9       183   183       130   162          687439152.00
    10       183   184       163   123          692727570.00
    11       184   185       124   183          713015148.00
    12       185   188       184    15          685781562.00
    13       188   190        16    23          688564632.00
    14       190   192        24    24          685571760.00
    15       192   193        25   193          685507368.00
    16       194   195         1    45          697428804.00
    17       195   195        46    78          495409896.00
    18       195   195        79   118          490917144.00
    19       195   195       119   139          492514704.00
    20       195   195       140   152          506802096.00
    21       195   195       153   167          504692712.00
    22       195   195       168   189          491732136.00
    23       195   196       190    69          493225788.00
    24       196   196        70   145          497906976.00
    25       196   196       146   183          366088158.00
    26       196   197       184   144          352290168.00
    27       197   198       145   106          351872856.00
    28       198   199       107    48          354093582.00
    29       199   199        49   184          351667410.00
    30       199   200       185   145          352760598.00
    31       200   201       146    68          349883592.00
    32       201   201        69   197          360744204.00
    33       201   202       198   141          254290836.00
    34       202   202       142   195          252823284.00
    35       202   203       196   141          252647496.00
    36       203   203       142   195          257468256.00
    37       203   204       196   152          252123060.00
    38       204   204       153   203          260232066.00
    39       204   205       204   153          251172726.00
    40       205   205       154   205          254427822.00
    41       206   206         1   139          181600290.00
    42       206   206       140   172          179295822.00
    43       206   207       173     6          182483894.00
    44       207   207         7    29          182486750.00
    45       207   207        30    83          183424820.00
    46       207   207        84   118          187004060.00
    47       207   207       119   127          205263540.00
    48       207   207       128   136          185913240.00
    49       207   207       137   147          134135070.00
    50       207   207       148   165          129306210.00
    51       207   207       166   183          145018170.00
    52       207   207       184   190          141629700.00
    53       207   207       191   195          163072020.00
    54       207   208       196    25          130491530.00
    55       208   208        26    54          138828950.00
    56       208   208        55    71          128442640.00
    57       208   208        72    89           98248520.00
    58       208   208        90   107           91302680.00
    59       208   208       108   118           91046220.00
    60       208   208       119   131           98936820.00
    61       208   208       132   142           95209980.00
    62       208   208       143   147          122661720.00
    63       208   208       148   152          102134580.00
    64       208   208       153   157          122788200.00
    65       208   208       158   161           90437040.00
    66       208   208       162   172           73267380.00
    67       208   208       173   183          124914630.00
    68       208   208       184   195          114656280.00
    69       208   208       196   199           82180260.00
    70       208   208       200   203           85551540.00
    71       208   208       204   207           96699240.00
    73       208   208       208   207           29265100.00
 totalcost check=   26207445039.0000      ntasks=                    72

 cpu time for derivative 2e integral statistics :      0.84 sec

 
   end of statistics output by subroutine kunz .
                     ***
 
          Overall gridpoints after grid construction =        676936

 Integrated ground state density     :   164.9999571201275    

 Integrated ground state spin density:  0.9999769761979613    


          ------------------------------------------------
           cartesian gradient of the energy (hartree/bohr)
          ------------------------------------------------

  ATOM      1 y           2 h           3 c           4 c           5 c 
dE/dx -0.8611331D-04  0.1465645D-05 -0.1981226D-04  0.1172213D-04 -0.1688525D-04
dE/dy -0.1852862D-04  0.1003471D-04 -0.2526740D-04  0.2103885D-04 -0.1418616D-05
dE/dz  0.9266013D-04 -0.1339551D-05  0.1820044D-04  0.1783111D-04  0.3800173D-05

  ATOM      6 c           7 c           8 c           9 c          10 c 
dE/dx  0.3791331D-04 -0.1011840D-04 -0.4752170D-05  0.6487287D-04  0.1649400D-04
dE/dy  0.3397065D-04  0.2788081D-05 -0.2236792D-04  0.4640123D-05  0.8959877D-05
dE/dz  0.7325075D-05 -0.3911255D-04 -0.6276658D-05 -0.7628656D-05 -0.4001093D-04

  ATOM     11 c          12 c          13 y          14 h          15 c 
dE/dx -0.7997996D-05  0.4905617D-04  0.1086544D-03  0.1296012D-05 -0.1545425D-05
dE/dy  0.1552563D-05 -0.9906090D-05  0.5348778D-04 -0.2128641D-04  0.1674313D-04
dE/dz  0.1241139D-04 -0.1199201D-04 -0.8912059D-04 -0.4197655D-05 -0.8730690D-05

  ATOM     16 c          17 c          18 c          19 c          20 c 
dE/dx -0.2005903D-04  0.1623635D-04 -0.4431752D-04 -0.1142333D-04  0.7496713D-05
dE/dy -0.3914143D-04 -0.7405801D-05 -0.3495117D-04  0.3357651D-05  0.2822927D-04
dE/dz -0.7247469D-05  0.3740274D-05 -0.4361574D-05  0.4347121D-04 -0.9628750D-06

  ATOM     21 c          22 c          23 c          24 c          25 h 
dE/dx -0.5575920D-04 -0.1105583D-04  0.6696217D-05 -0.4284862D-04  0.2512508D-04
dE/dy -0.1259092D-05 -0.7541395D-05 -0.2989709D-05  0.1048401D-04  0.8793444D-05
dE/dz  0.3088180D-05  0.2944205D-04 -0.1662620D-04  0.1727720D-04  0.3394162D-05

  ATOM     26 h          27 h          28 h          29 h          30 h 
dE/dx  0.2201108D-05 -0.1314427D-05  0.6041290D-05 -0.1399845D-04  0.3629051D-06
dE/dy  0.1872898D-04  0.1728024D-04 -0.8171014D-05 -0.1464083D-05 -0.2589542D-05
dE/dz  0.2256894D-05 -0.1170574D-04 -0.1787691D-04 -0.1410327D-05  0.1322354D-04

  ATOM     31 h          32 h          33 h          34 h          35 h 
dE/dx  0.5576873D-05 -0.1781600D-04  0.6066082D-06 -0.5531803D-05  0.7661246D-08
dE/dy -0.1553570D-04 -0.6417053D-05 -0.1534655D-04  0.8017751D-05 -0.1965471D-05
dE/dz  0.7705643D-05  0.2090123D-06 -0.3271947D-05  0.1285002D-04 -0.1114618D-04

  ATOM     36 h          37 h          38 h          39 h          40 h 
dE/dx  0.5738387D-05 -0.9551729D-05  0.1821474D-04 -0.4544797D-05  0.7859633D-05
dE/dy -0.9310278D-05  0.4347584D-05  0.2490491D-05  0.1310932D-04 -0.7070623D-05
dE/dz -0.9789307D-05 -0.1350175D-04 -0.3679023D-06  0.3149555D-05  0.9161130D-05

  ATOM     41 h          42 h          43 h          44 h 
dE/dx -0.2323546D-05 -0.5992608D-05  0.3204109D-05  0.4745399D-05
dE/dy  0.9919671D-05  0.4700768D-05 -0.6974114D-05 -0.6784572D-05
dE/dz  0.7026654D-05  0.8122097D-05 -0.1696215D-04 -0.5883534D-05
 
 resulting FORCE  (fx,fy,fz) = (0.783D-05,0.898D-05,-.132D-04)
 resulting MOMENT (mx,my,mz) = (-.190D-03,-.650D-03,0.678D-03)


 exx =      -0.000162 eyy =       0.000180 ezz =       0.000939
 eyz =      -0.000021 exz =      -0.000444 exy =      -0.000332


 **********************************************************************
  |maximum component of gradient| : 0.10865440E-03  (atom 13 y )       
   gradient norm                  : 0.27781055E-03
 **********************************************************************
   ***  cartesian gradients written onto <gradient>  ***


     --- calculation of the energy gradient finished ---


    rdgrad.all profiling
  --------------------------------------------------------------------
             module   cpu total (s)       %  wall total (s)       %

          rdgrad.all            39.4  100.00            37.4  100.00
        rdgrad.input             0.0    0.07             0.0    0.10
           bound.etc             0.0    0.12             0.0    0.13
            dft.prep             0.0    0.03             0.0    0.03
       before.oneder             1.6    4.03             0.3    0.78
        input.oneint             0.0    0.01             0.0    0.01
       input.moinput             0.4    1.03             0.3    0.92
      moinput.orttst             0.1    0.21             0.0    0.06
              oneder             1.6    4.10             1.0    2.78
       rdgrad.twoder             2.6    6.68             2.6    7.03
              lpdrc1             0.5    1.30             0.5    1.37
          DRI-J.near             1.4    3.49             1.4    3.67
      rdgrad.grdfinp            14.2   36.07            14.2   37.92
           dft total            14.2   36.03            14.2   37.88
    xc contributions            14.2   36.03            14.2   37.88
 


    ------------------------------------------------------------------------
         total  cpu-time :  39.49 seconds
         total wall-time :  37.99 seconds
    ------------------------------------------------------------------------

   ****  rdgrad : all done  ****


    2018-01-23 16:12:15.066 

 rdgrad ended normally
fine, there is no data group "$actual step"
next step = relax

 statpt (c-8-39.local) : TURBOMOLE V7.2 ( 21287 ) 3 Jul 2017 at 09:33:16
 Copyright (C) 2017 TURBOMOLE GmbH, Karlsruhe


    2018-01-23 16:12:16.144 



                           this is S T A T P T   


                     hessian and coordinate update for
                          stationary point search 

                     by barbara unterreiner, marek sierka,
                           and reinhart ahlrichs

                          quantum chemistry group
                          universitaet  karlsruhe
                                  germany




              +--------------------------------------------------+
              | Atomic coordinate, charge and isotop information |
              +--------------------------------------------------+

                    atomic coordinates            atom    charge  isotop
         -1.01550601    0.16544365   -3.08667082    y     39.000     0
         -2.06849425   -1.09279299    0.62194881    h      1.000     0
         -3.25673204    3.30672147   -6.25198717    c      6.000     0
         -5.19095055    2.54705824   -4.54394415    c      6.000     0
         -4.62256659    3.59162666   -2.13860881    c      6.000     0
         -2.34075500    4.98171135   -2.34720641    c      6.000     0
         -1.48494715    4.80852797   -4.89358672    c      6.000     0
         -0.77082799   -4.81918381   -3.94596344    c      6.000     0
          1.73735266   -3.91383497   -4.21686350    c      6.000     0
          1.82086446   -2.31491256   -6.38101643    c      6.000     0
         -0.65010126   -2.24559737   -7.44292648    c      6.000     0
         -2.25327816   -3.78706028   -5.92985778    c      6.000     0
          1.03691004   -0.19640029    3.08593373    y     39.000     0
          2.09132353    1.05972190   -0.62335930    h      1.000     0
          3.22167805   -3.36447570    6.26573989    c      6.000     0
          5.17835682   -2.61728783    4.57798100    c      6.000     0
          4.62350762   -3.65025715    2.16459286    c      6.000     0
          2.32756746   -5.02086256    2.34799456    c      6.000     0
          1.44966107   -4.84689408    4.88684759    c      6.000     0
          0.80950250    4.79493385    3.91491855    c      6.000     0
         -1.69706100    3.89646783    4.21903303    c      6.000     0
         -1.76003678    2.31076149    6.39347659    c      6.000     0
          0.72249396    2.24286420    7.42872666    c      6.000     0
          2.31197525    3.77185883    5.88861880    c      6.000     0
         -1.46108857   -6.05528393   -2.45049562    h      1.000     0
          3.32499884   -4.35706112   -2.98892436    h      1.000     0
          3.49377336   -1.36813975   -7.12338415    h      1.000     0
         -1.20855984   -1.22619666   -9.14288305    h      1.000     0
          5.75019455   -3.38959825    0.46059103    h      1.000     0
          6.82519961   -1.47418799    5.05860060    h      1.000     0
         -3.42666874    1.37249221    7.16046677    h      1.000     0
          1.48601372    6.01961014    2.40395494    h      1.000     0
         -3.29711738    4.33565638    3.00568069    h      1.000     0
          1.29771180    1.23352960    9.12906286    h      1.000     0
         -6.83235089    1.38860694   -5.00597305    h      1.000     0
         -1.40039846    6.00204768   -0.83060097    h      1.000     0
         -3.17311414    2.85501745   -8.25945141    h      1.000     0
         -5.73037758    3.32496081   -0.42329823    h      1.000     0
          1.39205498   -6.02849149    0.82002367    h      1.000     0
          3.12274519   -2.91702439    8.27349050    h      1.000     0
         -0.24261057   -5.74375098    5.64708631    h      1.000     0
          4.32260468    4.11673093    6.18557473    h      1.000     0
          0.19167775    5.71883849   -5.67238760    h      1.000     0
         -4.26001272   -4.13321508   -6.25079998    h      1.000     0
 
       center of nuclear mass  :    0.00956911   -0.01601800   -0.00027049
       center of nuclear charge:    0.00948401   -0.01605839   -0.00026369
  Keyword $statpt not found - using default options
 
        ***************  Stationary point options ******************
        ************************************************************
           Maximum allowed trust radius:           3.000000E-01
           Minimum allowed trust radius:           1.000000E-03
           Initial trust radius:                   1.500000E-01
           GDIIS used if gradient norm <           1.000000E-02
           Number of previous steps for GDIIS:       5
           Hessian update method:                  BFGS
                        *** Convergence criteria ***                
           Threshold for energy change:            1.000000E-06
           Threshold for max displacement element: 1.000000E-03
           Threshold for max gradient element :    1.000000E-03
           Threshold for RMS of displacement:      5.000000E-04
           Threshold for RMS of gradient:          5.000000E-04
        ************************************************************
 

 keyword $statp missing in file <control>

  Keyword $statpt not found - using default options
  actual coordinates :
        -1.015506005711         0.165443652041        -3.086670816660
        -2.068494249388        -1.092792988286         0.621948810052
        -3.256732036845         3.306721467825        -6.251987171904
        -5.190950548687         2.547058235788        -4.543944151153
        -4.622566593459         3.591626664285        -2.138608814228
        -2.340754999873         4.981711351308        -2.347206414246
        -1.484947154847         4.808527967231        -4.893586723485
        -0.770827988418        -4.819183810425        -3.945963442841
         1.737352659043        -3.913834967864        -4.216863504580
         1.820864457512        -2.314912555816        -6.381016432150
        -0.650101264871        -2.245597366794        -7.442926484018
        -2.253278156139        -3.787060281127        -5.929857775775
         1.036910043328        -0.196400289495         3.085933725956
         2.091323526732         1.059721903344        -0.623359301877
         3.221678053099        -3.364475703469         6.265739894316
         5.178356823142        -2.617287826404         4.577980997815
         4.623507617258        -3.650257153415         2.164592859205
         2.327567458182        -5.020862557652         2.347994561709
         1.449661072087        -4.846894076601         4.886847587858
         0.809502495399         4.794933847887         3.914918548633
        -1.697061003041         3.896467831544         4.219033034904
        -1.760036782376         2.310761488578         6.393476590604
         0.722493962260         2.242864204168         7.428726655015
         2.311975250198         3.771858828349         5.888618795718
        -1.461088572581        -6.055283925518        -2.450495622024
         3.324998842631        -4.357061120289        -2.988924361953
         3.493773355849        -1.368139753250        -7.123384146451
        -1.208559842665        -1.226196657455        -9.142883045919
         5.750194553917        -3.389598251379         0.460591030832
         6.825199607484        -1.474187990893         5.058600600853
        -3.426668740675         1.372492207754         7.160466766009
         1.486013718090         6.019610140326         2.403954937448
        -3.297117380074         4.335656376741         3.005680689289
         1.297711803977         1.233529596210         9.129062857038
        -6.832350887738         1.388606943614        -5.005973050948
        -1.400398460164         6.002047678138        -0.830600967274
        -3.173114137776         2.855017450840        -8.259451412585
        -5.730377579771         3.324960809314        -0.423298233041
         1.392054984576        -6.028491488420         0.820023671691
         3.122745187351        -2.917024389350         8.273490504362
        -0.242610567390        -5.743750982993         5.647086312355
         4.322604677983         4.116730931021         6.185574731754
         0.191677753356         5.718838494550        -5.672387599487
        -4.260012717845        -4.133215076746        -6.250799975000
  actual gradients :
        -0.000086113315        -0.000018528616         0.000092660127
         0.000001465645         0.000010034709        -0.000001339551
        -0.000019812264        -0.000025267398         0.000018200438
         0.000011722128         0.000021038854         0.000017831107
        -0.000016885250        -0.000001418616         0.000003800173
         0.000037913306         0.000033970650         0.000007325075
        -0.000010118397         0.000002788081        -0.000039112546
        -0.000004752170        -0.000022367921        -0.000006276658
         0.000064872873         0.000004640123        -0.000007628656
         0.000016493996         0.000008959877        -0.000040010926
        -0.000007997996         0.000001552563         0.000012411389
         0.000049056175        -0.000009906090        -0.000011992011
         0.000108654403         0.000053487782        -0.000089120586
         0.000001296012        -0.000021286415        -0.000004197655
        -0.000001545425         0.000016743130        -0.000008730690
        -0.000020059032        -0.000039141430        -0.000007247469
         0.000016236353        -0.000007405801         0.000003740274
        -0.000044317523        -0.000034951171        -0.000004361574
        -0.000011423331         0.000003357651         0.000043471209
         0.000007496713         0.000028229274        -0.000000962875
        -0.000055759201        -0.000001259092         0.000003088180
        -0.000011055835        -0.000007541395         0.000029442051
         0.000006696217        -0.000002989709        -0.000016626204
        -0.000042848618         0.000010484014         0.000017277202
         0.000025125081         0.000008793444         0.000003394162
         0.000002201108         0.000018728983         0.000002256894
        -0.000001314427         0.000017280245        -0.000011705737
         0.000006041290        -0.000008171014        -0.000017876910
        -0.000013998448        -0.000001464083        -0.000001410327
         0.000000362905        -0.000002589542         0.000013223541
         0.000005576873        -0.000015535698         0.000007705643
        -0.000017816000        -0.000006417053         0.000000209012
         0.000000606608        -0.000015346555        -0.000003271947
        -0.000005531803         0.000008017751         0.000012850018
         0.000000007661        -0.000001965471        -0.000011146180
         0.000005738387        -0.000009310278        -0.000009789307
        -0.000009551729         0.000004347584        -0.000013501746
         0.000018214744         0.000002490491        -0.000000367902
        -0.000004544797         0.000013109320         0.000003149555
         0.000007859633        -0.000007070623         0.000009161130
        -0.000002323546         0.000009919671         0.000007026654
        -0.000005992608         0.000004700768         0.000008122097
         0.000003204109        -0.000006974114        -0.000016962154
         0.000004745399        -0.000006784572        -0.000005883534
     Number of symmetry restricted degrees of freedom:   132
     Constituted by:     3 translational degrees of freedom
                         3 rotational degrees of freedom
                     126 internal degrees of freedom

  *************************************************************************
   ATOM                      CARTESIAN COORDINATES
    1 y      -1.01550600571077      0.16544365204127     -3.08667081666027
    2 h      -2.06849424938832     -1.09279298828627      0.62194881005223
    3 c      -3.25673203684550      3.30672146782527     -6.25198717190422
    4 c      -5.19095054868666      2.54705823578837     -4.54394415115279
    5 c      -4.62256659345934      3.59162666428518     -2.13860881422790
    6 c      -2.34075499987267      4.98171135130848     -2.34720641424628
    7 c      -1.48494715484711      4.80852796723141     -4.89358672348476
    8 c      -0.77082798841841     -4.81918381042530     -3.94596344284069
    9 c       1.73735265904319     -3.91383496786410     -4.21686350457957
   10 c       1.82086445751239     -2.31491255581570     -6.38101643215037
   11 c      -0.65010126487123     -2.24559736679395     -7.44292648401836
   12 c      -2.25327815613871     -3.78706028112696     -5.92985777577511
   13 y       1.03691004332814     -0.19640028949521      3.08593372595632
   14 h       2.09132352673244      1.05972190334409     -0.62335930187717
   15 c       3.22167805309904     -3.36447570346861      6.26573989431555
   16 c       5.17835682314248     -2.61728782640387      4.57798099781456
   17 c       4.62350761725769     -3.65025715341482      2.16459285920486
   18 c       2.32756745818213     -5.02086255765202      2.34799456170916
   19 c       1.44966107208686     -4.84689407660128      4.88684758785800
   20 c       0.80950249539902      4.79493384788744      3.91491854863313
   21 c      -1.69706100304055      3.89646783154380      4.21903303490445
   22 c      -1.76003678237572      2.31076148857801      6.39347659060441
   23 c       0.72249396225994      2.24286420416841      7.42872665501545
   24 c       2.31197525019812      3.77185882834918      5.88861879571803
   25 h      -1.46108857258083     -6.05528392551794     -2.45049562202368
   26 h       3.32499884263066     -4.35706112028856     -2.98892436195265
   27 h       3.49377335584922     -1.36813975325035     -7.12338414645061
   28 h      -1.20855984266483     -1.22619665745538     -9.14288304591852
   29 h       5.75019455391736     -3.38959825137887      0.46059103083174
   30 h       6.82519960748385     -1.47418799089285      5.05860060085310
   31 h      -3.42666874067544      1.37249220775407      7.16046676600927
   32 h       1.48601371809045      6.01961014032571      2.40395493744753
   33 h      -3.29711738007415      4.33565637674078      3.00568068928935
   34 h       1.29771180397718      1.23352959620983      9.12906285703821
   35 h      -6.83235088773792      1.38860694361427     -5.00597305094780
   36 h      -1.40039846016357      6.00204767813839     -0.83060096727391
   37 h      -3.17311413777578      2.85501745083978     -8.25945141258467
   38 h      -5.73037757977061      3.32496080931398     -0.42329823304079
   39 h       1.39205498457572     -6.02849148841997      0.82002367169077
   40 h       3.12274518735136     -2.91702438934967      8.27349050436212
   41 h      -0.24261056738974     -5.74375098299336      5.64708631235530
   42 h       4.32260467798316      4.11673093102121      6.18557473175406
   43 h       0.19167775335620      5.71883849454988     -5.67238759948716
   44 h      -4.26001271784483     -4.13321507674580     -6.25079997500005
  *************************************************************************
   ATOM                      CARTESIAN GRADIENTS  
    1 y      -0.00008611331475     -0.00001852861615      0.00009266012744
    2 h       0.00000146564492      0.00001003470948     -0.00000133955137
    3 c      -0.00001981226421     -0.00002526739799      0.00001820043753
    4 c       0.00001172212764      0.00002103885410      0.00001783110723
    5 c      -0.00001688525034     -0.00000141861597      0.00000380017299
    6 c       0.00003791330561      0.00003397065025      0.00000732507483
    7 c      -0.00001011839703      0.00000278808137     -0.00003911254574
    8 c      -0.00000475216991     -0.00002236792055     -0.00000627665778
    9 c       0.00006487287292      0.00000464012323     -0.00000762865558
   10 c       0.00001649399639      0.00000895987728     -0.00004001092575
   11 c      -0.00000799799573      0.00000155256268      0.00001241138921
   12 c       0.00004905617464     -0.00000990608979     -0.00001199201069
   13 y       0.00010865440347      0.00005348778193     -0.00008912058628
   14 h       0.00000129601168     -0.00002128641493     -0.00000419765465
   15 c      -0.00000154542541      0.00001674313045     -0.00000873068996
   16 c      -0.00002005903171     -0.00003914143000     -0.00000724746918
   17 c       0.00001623635297     -0.00000740580103      0.00000374027445
   18 c      -0.00004431752318     -0.00003495117116     -0.00000436157442
   19 c      -0.00001142333145      0.00000335765094      0.00004347120903
   20 c       0.00000749671349      0.00002822927369     -0.00000096287501
   21 c      -0.00005575920140     -0.00000125909153      0.00000308818031
   22 c      -0.00001105583453     -0.00000754139492      0.00002944205072
   23 c       0.00000669621682     -0.00000298970896     -0.00001662620365
   24 c      -0.00004284861827      0.00001048401375      0.00001727720182
   25 h       0.00002512508057      0.00000879344356      0.00000339416155
   26 h       0.00000220110816      0.00001872898304      0.00000225689352
   27 h      -0.00000131442729      0.00001728024500     -0.00001170573733
   28 h       0.00000604129001     -0.00000817101435     -0.00001787690956
   29 h      -0.00001399844833     -0.00000146408332     -0.00000141032662
   30 h       0.00000036290510     -0.00000258954215      0.00001322354117
   31 h       0.00000557687276     -0.00001553569846      0.00000770564347
   32 h      -0.00001781600022     -0.00000641705303      0.00000020901231
   33 h       0.00000060660822     -0.00001534655458     -0.00000327194729
   34 h      -0.00000553180311      0.00000801775061      0.00001285001771
   35 h       0.00000000766125     -0.00000196547051     -0.00001114617956
   36 h       0.00000573838721     -0.00000931027766     -0.00000978930653
   37 h      -0.00000955172918      0.00000434758376     -0.00001350174629
   38 h       0.00001821474442      0.00000249049130     -0.00000036790232
   39 h      -0.00000454479688      0.00001310932034      0.00000314955491
   40 h       0.00000785963253     -0.00000707062294      0.00000916112974
   41 h      -0.00000232354586      0.00000991967148      0.00000702665416
   42 h      -0.00000599260814      0.00000470076799      0.00000812209721
   43 h       0.00000320410873     -0.00000697411366     -0.00001696215446
   44 h       0.00000474539888     -0.00000678457207     -0.00000588353389
  *************************************************************************

  norm of actual CARTESIAN gradient:  2.77811E-04
  norm of actual INTERNAL  gradient:  2.83806E-04

  ENERGY =    -851.7708456818 a.u.; # of cycle =   12

  Approximate Hessian read from $hessapprox data section

  Hessian updated according to BFGS formula
  Number of zero Hessian eigenvalues:   0
  Number of structures for GDIIS interpolation:    5
  GDIIS step:     0.001781

  Transforming internal coordinate displacements to Cartesian space
      Iteration   1 residual norm     1.780637E-03
      Iteration   2 residual norm     4.381562E-07
      Iteration   3 residual norm     2.018909E-14
      Transformation converged
      Residual norm:    2.018909E-14 after    3 iterations

      ****************************************************************** 
                          CONVERGENCE INFORMATION

                               Converged?     Value      Criterion
             Energy change         yes      0.0000003   0.0000010
             RMS of displacement   yes      0.0001586   0.0005000
             RMS of gradient       yes      0.0000253   0.0005000
             MAX displacement      yes      0.0009994   0.0010000
             MAX gradient          yes      0.0002037   0.0010000
      ****************************************************************** 


    ------------------------------------------------------------------------
         total  cpu-time :   0.34 seconds
         total wall-time :   0.34 seconds
    ------------------------------------------------------------------------

   ****  statpt : all done  ****


    2018-01-23 16:12:16.472 

fine, there is no data group "$actual step"
next step = ridft
STARTING ridft ON 8 PROCESSORS!
RUNNING PROGRAM /beegfs/modfac/apps/TURBOMOLE/7.2-official/bin/em64t-unknown-linux-gnu_smp/ridft_mpi.
PLEASE WAIT UNTIL ridft HAS FINISHED.
 c-8-39.local ( 1 ) 
 c-8-39.local ( 2 ) 
 c-8-39.local ( 3 ) 
 c-8-39.local ( 4 ) 
 c-8-39.local ( 5 ) 
 c-8-39.local ( 6 ) 
 c-8-39.local ( 7 ) 
 this is node-proc. number 0 running on node c-8-39.local
 the total number of node-proc. spawned is   8
 GA version: using    8 (total) on    1 nhosts.
 operating system is UNIX !

 ridft (c-8-39.local) : TURBOMOLE V7.2 ( 21285 ) 30 Jun 2017 at 12:03:23
 Copyright (C) 2017 TURBOMOLE GmbH, Karlsruhe


    2018-01-23 16:12:17.425 



                                  r i d f t

                        DFT program with RI approximation 
                                for coulomb part 




                                                 
                                 References:     
                                                 
          TURBOMOLE:                             
              R. Ahlrichs, M. Baer, M. Haeser, H. Horn, and
              C. Koelmel
              Electronic structure calculations on workstation
              computers: the program system TURBOMOLE
              Chem. Phys. Lett. 162: 165 (1989)
          Density Functional:                              
              O. Treutler and R. Ahlrichs                      
              Efficient Molecular Numerical Integration Schemes
              J. Chem. Phys. 102: 346 (1995)                   
          Parallel Version:                                
              Performance of parallel TURBOMOLE for Density    
              Functional Calculations                          
              M. v. Arnim and R. Ahlrichs                      
              J. Comp. Chem. 19: 1746 (1998)                   
          RI-J Method:                                     
              Auxiliary Basis Sets to approximate Coulomb      
              Potentials                                       
              Chem. Phys. Lett. 240: 283 (1995)                
              K. Eichkorn, O. Treutler, H. Oehm, M. Haeser     
              and R. Ahlrichs                                  
              Chem. Phys. Lett. 242: 652 (1995)                
                                                           
              Auxiliary Basis Sets for Main Row Atoms and their
              Use to approximate Coulomb Potentials            
              K. Eichkorn, F. Weigend, O. Treutler and         
              R. Ahlrichs                                      
              Theo. Chem. Acc. 97: 119 (1997)                   
                                                           
              Accurate Coulomb-fitting basis sets for H to Rn 
              F. Weigend                                        
              Phys. Chem. Chem. Phys. 8: 1057 (2006)            
                                                           
          Multipole accelerated RI-J (MARI-J):             
              Fast evaluation of the Coulomb potential for     
              electron densities using multipole accelerated   
              resolution of identity approximation             
              M. Sierka, A. Hogekamp and R. Ahlrichs           
              J. Chem. Phys. 118: 9136 (2003)                  
          RI-JK Method:                                     
              A fully direct RI-HF algorithm: Implementation,
              optimised auxiliary basis sets, demonstration of
              accuracy and efficiency                         
              F. Weigend                                      
              Phys. Chem. Chem. Phys. 4: 4285 (2002)           
          Two-component HF and DFT with spin-orbit coupling:  
              Self-consistent treatment of spin-orbit         
              interactions with efficient Hartree-Fock and    
              density functional methods                      
              M. K. Armbruster, F. Weigend, C. van Wüllen and 
              W. Klopper                                      
              Phys. Chem. Chem. Phys. 10: 1748 (2008)         
          Relativistic all-electron 2c calculations           
              An efficient implementation of two-component    
              relativistic exact-decoupling methods for large 
              molecules                                       
              D. Peng, N. Middendorf, F. Weigend, M. Reiher   
              J. Chem. Phys. 138, 184105 (2013)               
                                         


 ********** GlobalArray OPTION SETTINGS : **********
 *****************************************************


              +--------------------------------------------------+
              |      general information about current run       |
              +--------------------------------------------------+

 

 SCF run will be profiled !


 UHF modus switched on !
 TPSS global hybrid functional
 exchange:    9/10 (LDA+TPSS) + 1/10 HF
 correlation: LDA (PW) + TPSS
 A Hybrid-DFT calculation using the RI-J approximation will be carried out.
 Allocatable memory for RI due to $ricore (MB):                 10000


              +--------------------------------------------------+
              | Atomic coordinate, charge and isotop information |
              +--------------------------------------------------+

                    atomic coordinates            atom    charge  isotop
         -1.01578624    0.16530718   -3.08647375    y     39.000     0
         -2.06890173   -1.09294983    0.62210873    h      1.000     0
         -3.25635780    3.30682977   -6.25212709    c      6.000     0
         -5.19094682    2.54712838   -4.54455622    c      6.000     0
         -4.62311750    3.59150442   -2.13899412    c      6.000     0
         -2.34126186    4.98162692   -2.34708213    c      6.000     0
         -1.48492261    4.80857311   -4.89328281    c      6.000     0
         -0.77146812   -4.81932009   -3.94620602    c      6.000     0
          1.73684133   -3.91418265   -4.21669502    c      6.000     0
          1.82084110   -2.31505359   -6.38065350    c      6.000     0
         -0.64992351   -2.24532987   -7.44290814    c      6.000     0
         -2.25344819   -3.78683750   -5.93027742    c      6.000     0
          1.03664366   -0.19658026    3.08592357    y     39.000     0
          2.09108140    1.05980278   -0.62328562    h      1.000     0
          3.22199345   -3.36429077    6.26583213    c      6.000     0
          5.17850058   -2.61698193    4.57796367    c      6.000     0
          4.62370265   -3.65011545    2.16462498    c      6.000     0
          2.32793511   -5.02100978    2.34822073    c      6.000     0
          1.45015065   -4.84701999    4.88710347    c      6.000     0
          0.80960048    4.79485212    3.91478072    c      6.000     0
         -1.69698346    3.89651715    4.21921472    c      6.000     0
         -1.75980416    2.31089175    6.39371272    c      6.000     0
          0.72281525    2.24284993    7.42867205    c      6.000     0
          2.31218403    3.77173426    5.88837965    c      6.000     0
         -1.46226732   -6.05567785   -2.45118311    h      1.000     0
          3.32426377   -4.35782028   -2.98857363    h      1.000     0
          3.49405145   -1.36845851   -7.12255096    h      1.000     0
         -1.20801982   -1.22578083   -9.14287701    h      1.000     0
          5.75058837   -3.38948817    0.46073415    h      1.000     0
          6.82532196   -1.47375729    5.05842321    h      1.000     0
         -3.42653647    1.37287126    7.16079620    h      1.000     0
          1.48617002    6.01961986    2.40389874    h      1.000     0
         -3.29715124    4.33590390    3.00603219    h      1.000     0
          1.29809599    1.23359094    9.12902174    h      1.000     0
         -6.83235438    1.38882167   -5.00697287    h      1.000     0
         -1.40135960    6.00199936   -0.83018143    h      1.000     0
         -3.17228329    2.85528752   -8.25959280    h      1.000     0
         -5.73159921    3.32483222   -0.42409675    h      1.000     0
          1.39261679   -6.02898350    0.82032385    h      1.000     0
          3.12306908   -2.91680598    8.27356923    h      1.000     0
         -0.24195963   -5.74414200    5.64740092    h      1.000     0
          4.32284896    4.11661379    6.18519942    h      1.000     0
          0.19188937    5.71899853   -5.67153764    h      1.000     0
         -4.26014028   -4.13289183   -6.25167401    h      1.000     0
 
       center of nuclear mass  :    0.00947565   -0.01607617   -0.00023932
       center of nuclear charge:    0.00940385   -0.01610849   -0.00023700

              +--------------------------------------------------+
              |               basis set information              |
              +--------------------------------------------------+

              we will work with the 1s 3p 5d 7f 9g ... basis set
              ...i.e. with spherical basis functions...

   type   atoms  prim   cont   basis
   ---------------------------------------------------------------------------
    y        2     57     31   def2-SVP   [5s3p2d1f|7s6p5d1f]
    h       22      7      5   def2-SVP   [2s1p|4s1p]
    c       20     24     14   def2-SVP   [3s2p1d|7s4p1d]
   ---------------------------------------------------------------------------
   total:   44    748    452
   ---------------------------------------------------------------------------

   total number of primitive shells          :   36
   total number of contracted shells         :  208
   total number of cartesian basis functions :  482
   total number of SCF-basis functions       :  452


 integral neglect threshold       :  0.69E-11
 integral storage threshold THIZE :  0.10E-04
 integral storage threshold THIME :         5

 number of unique ecp types :                     1
 RI-J AUXILIARY BASIS SET information:

              we will work with the 1s 3p 5d 7f 9g ... basis set
              ...i.e. with spherical basis functions...

   type   atoms  prim   cont   basis
   ---------------------------------------------------------------------------
    y        2     99     89   def2-SVP   [8s5p5d2f3g|11s5p5d3f3g]
    h       22     16     11   def2-SVP   [3s1p1d|5s2p1d]
    c       20     70     49   def2-SVP   [6s4p3d1f1g|12s5p4d2f1g]
   ---------------------------------------------------------------------------
   total:   44   1950   1400
   ---------------------------------------------------------------------------

   total number of primitive shells          :   59
   total number of contracted shells         :  456
   total number of cartesian basis functions : 1720
   total number of SCF-basis functions       : 1400


 symmetry group of the molecule :   c1 

 the group has the following generators :
   c1(z)

    1 symmetry operations found

 there are 1 real representations :   a   

 maximum number of shells which are related by symmetry :  1


    mo occupation :
   irrep   mo's   occupied
    a      452       83
 
 number of basis functions   :                    452
 number of occupied orbitals :                     83
 
  
           ------------------
           density functional
           ------------------
 TPSS global hybrid functional
 exchange:    9/10 (LDA+TPSS) + 1/10 HF
 correlation: LDA (PW) + TPSS

 iterations will be done with small grid
  
 spherical integration : Lebedev's spherical grid
 spherical gridsize    :                     5
    i.e. gridpoints    :                   590
 value for diffuse not defined
 radial integration    : Chebyshev 2nd kind (scaling 3)
 radial gridsize       :                     8
 integration cells     :                    44
 partition function    : becke
 partition sharpness   :                     3
  

 biggest AO integral is expected to be     3.528781981
  
           ------------------------
               RI-J - INFORMATION
           ------------------------
 Memory core needed for (P|Q) and Cholesky      8 MByte on GA
 Memory core minimum needed except           1 MByte 
  
 ****************************************
 Memory allocated for RI-J 1 MByte
 plus additional 8 MByte (pqmatrix)  (GA)
 ****************************************
                                            
allocating par_xzuhag(  188.68 MB)

          ------------------------
          nuclear repulsion energy  :   1827.83608101    
          ------------------------

  _________________________________
 |                                 |
 |         DFTD3 V3.1 Rev 0        |
 | S.Grimme, University Bonn       |
 |            June  2014           |
 |   see standalone version        |
 |       dftd3 -h for options      |
 |_________________________________|
 
 Please cite DFT-D3 work done with this code as:
 S. Grimme, J. Antony, S. Ehrlich and H. Krieg,
 J. Chem. Phys, 132 (2010), 154104.
 If used with BJ-damping cite also
 S. Grimme, S. Ehrlich and L. Goerigk,
 J. Comput. Chem. 32 (2011), 1456-1465
 For DFT-D2 the reference is
 S. Grimme, J. Comput. Chem., 27 (2006), 1787-1799
 
C6 coefficients used:
                     2  C6 for element                      1
Z=  1 CN= 0.912     C6(AA)=    3.03
Z=  1 CN= 0.000     C6(AA)=    7.59
                     5  C6 for element                      6
Z=  6 CN= 0.000     C6(AA)=   49.11
Z=  6 CN= 0.987     C6(AA)=   43.25
Z=  6 CN= 1.998     C6(AA)=   29.36
Z=  6 CN= 2.999     C6(AA)=   25.78
Z=  6 CN= 3.984     C6(AA)=   18.21
                     3  C6 for element                     39
Z= 39 CN= 0.000     C6(AA)= 2365.89
Z= 39 CN= 1.915     C6(AA)= 1132.30
Z= 39 CN= 2.890     C6(AA)=  451.08

#           XYZ [au]              R0(AA) [Ang.]  CN          C6(AA)     C8(AA)   C10(AA) [au]
  1  -1.01579   0.16531  -3.08647   y   2.110 11.336       451.1     86005.2  20087594.1
  2  -2.06890  -1.09295   0.62211   h   1.091  1.711         3.0        36.6       541.9
  3  -3.25636   3.30683  -6.25213   c   1.455  4.095        18.3       528.2     18714.2
  4  -5.19095   2.54713  -4.54456   c   1.455  4.077        18.3       528.5     18722.7
  5  -4.62312   3.59150  -2.13899   c   1.455  4.065        18.3       528.7     18729.6
  6  -2.34126   4.98163  -2.34708   c   1.455  4.075        18.3       528.5     18724.0
  7  -1.48492   4.80857  -4.89328   c   1.455  4.083        18.3       528.4     18719.6
  8  -0.77147  -4.81932  -3.94621   c   1.455  4.065        18.3       528.7     18729.6
  9   1.73684  -3.91418  -4.21670   c   1.455  4.075        18.3       528.5     18723.8
 10   1.82084  -2.31505  -6.38065   c   1.455  4.083        18.3       528.4     18719.7
 11  -0.64992  -2.24533  -7.44291   c   1.455  4.094        18.3       528.2     18714.4
 12  -2.25345  -3.78684  -5.93028   c   1.455  4.077        18.3       528.5     18722.8
 13   1.03664  -0.19658   3.08592   y   2.110 11.336       451.1     86005.2  20087594.1
 14   2.09108   1.05980  -0.62329   h   1.091  1.711         3.0        36.6       541.9
 15   3.22199  -3.36429   6.26583   c   1.455  4.094        18.3       528.2     18714.4
 16   5.17850  -2.61698   4.57796   c   1.455  4.077        18.3       528.5     18722.9
 17   4.62370  -3.65012   2.16462   c   1.455  4.065        18.3       528.6     18729.5
 18   2.32794  -5.02101   2.34822   c   1.455  4.075        18.3       528.5     18723.6
 19   1.45015  -4.84702   4.88710   c   1.455  4.083        18.3       528.4     18719.5
 20   0.80960   4.79485   3.91478   c   1.455  4.064        18.3       528.7     18729.8
 21  -1.69698   3.89652   4.21921   c   1.455  4.074        18.3       528.5     18724.2
 22  -1.75980   2.31089   6.39371   c   1.455  4.083        18.3       528.4     18719.7
 23   0.72282   2.24285   7.42867   c   1.455  4.095        18.3       528.2     18714.2
 24   2.31218   3.77173   5.88838   c   1.455  4.077        18.3       528.5     18722.6
 25  -1.46227  -6.05568  -2.45118   h   1.091  1.011         3.1        37.3       552.3
 26   3.32426  -4.35782  -2.98857   h   1.091  1.013         3.1        37.3       552.2
 27   3.49405  -1.36846  -7.12255   h   1.091  1.011         3.1        37.3       552.4
 28  -1.20802  -1.22578  -9.14288   h   1.091  1.012         3.1        37.3       552.3
 29   5.75059  -3.38949   0.46073   h   1.091  1.011         3.1        37.3       552.3
 30   6.82532  -1.47376   5.05842   h   1.091  1.011         3.1        37.3       552.4
 31  -3.42654   1.37287   7.16080   h   1.091  1.011         3.1        37.3       552.4
 32   1.48617   6.01962   2.40390   h   1.091  1.011         3.1        37.3       552.3
 33  -3.29715   4.33590   3.00603   h   1.091  1.013         3.1        37.3       552.2
 34   1.29810   1.23359   9.12902   h   1.091  1.012         3.1        37.3       552.3
 35  -6.83235   1.38882  -5.00697   h   1.091  1.011         3.1        37.3       552.4
 36  -1.40136   6.00200  -0.83018   h   1.091  1.013         3.1        37.3       552.2
 37  -3.17228   2.85529  -8.25959   h   1.091  1.012         3.1        37.3       552.3
 38  -5.73160   3.32483  -0.42410   h   1.091  1.011         3.1        37.3       552.3
 39   1.39262  -6.02898   0.82032   h   1.091  1.013         3.1        37.3       552.2
 40   3.12307  -2.91681   8.27357   h   1.091  1.012         3.1        37.3       552.3
 41  -0.24196  -5.74414   5.64740   h   1.091  1.011         3.1        37.3       552.4
 42   4.32285   4.11661   6.18520   h   1.091  1.011         3.1        37.3       552.4
 43   0.19189   5.71900  -5.67154   h   1.091  1.011         3.1        37.3       552.4
 44  -4.26014  -4.13289  -6.25167   h   1.091  1.011         3.1        37.3       552.4

molecular C6(AA) [au] =     27202.77

           DFT-D V3
 DF tpssh                                             
 parameters
 s6       :    1.0000
 s8       :    1.2190
 rs6      :    1.2230
 rs18     :    1.0000
 alpha6   :   14.0000
 alpha8   :   16.0000
 k1-k3    :   16.0000    1.3333   -4.0000
 
 Edisp /kcal,au:   -27.7113 -0.04416072

 E6    /kcal :    -8.5637
 E8    /kcal :   -19.1476
 % E8        : 69.10
 nuclear repulsion energy                  =    1827.836081005
 empirical dispersive energy correction    =      -0.044160718
 nuclear repulsion + dispersion correction =    1827.791920287


         -----------------
         -S,T+V- integrals
         -----------------

 1e-integrals will be neglected if expon. factor < 0.693353E-12


          ----------------
          -ecp-  integrals
          ----------------
 
   Difference densities algorithm switched on.
   The maximal number of linear combinations of
   difference densities is                    20 .

 DIIS switched on: error vector is FDS-SDF
 Max. Iterations for DIIS is     :   4
 DIIS matrix (see manual) 
    Scaling factor of diagonals  :  1.200
    threshold for scaling factor :  0.000

 scf convergence criterion : increment of total energy < .1000000D-06
                  and increment of one-electron energy < .1000000D-03

  MOs are in ASCII format !


 closed shell shift switched on 
 all occupied orbitals are shifted by    0.05000


 reading orbital data $uhfmo_alpha  from file alpha
 orbital characterization : scfconv=7

 reading orbital data $uhfmo_beta  from file beta
 orbital characterization : scfconv=7
 mo-orthogonalization by Cholesky decomposition
 mo-orthogonalization by Cholesky decomposition

 DSCF restart information will be dumped onto file alpha


 Starting SCF iterations

          Overall gridpoints after grid construction =        213217

 ITERATION  ENERGY          1e-ENERGY        2e-ENERGY     NORM[dD(SAO)]  TOL
   1  -851.77139434382    -4827.1812300     2147.6179153    0.000D+00 0.692D-11
                            Exc = -115.141351876     Coul =  2274.84683072    
                            exK = -12.0875635122    
                         Ntotal = 165.00140732      Nspin =0.99995426025    
                             Na = 83.000680789         Nb = 82.000726529    
                            current damping = 0.700
 
          max. resid. norm for Fia-block=  7.387D-05 for orbital     63a    alpha
          max. resid. fock norm         =  2.293D-03 for orbital    452a    alpha

 ITERATION  ENERGY          1e-ENERGY        2e-ENERGY     NORM[dD(SAO)]  TOL
   2  -851.77139455160    -4827.1815011     2147.6181862    0.759D-03 0.439D-11
                            Exc = -115.141356248      Eck =  2262.75954250    
                         Ntotal = 165.00140722      Nspin =0.99995422418    
                             Na = 83.000680724         Nb = 82.000726500    
                            current damping = 0.650
 
          Norm of current diis error: 0.34754E-03
          max. resid. norm for Fia-block=  3.778D-05 for orbital     65a    alpha
          max. resid. fock norm         =  9.448D-04 for orbital    452a    alpha

 ENERGY CONVERGED !

          Overall gridpoints after grid construction =        676939

 ITERATION  ENERGY          1e-ENERGY        2e-ENERGY     NORM[dD(SAO)]  TOL
   3  -851.77084586169    -4827.1815437     2147.6187776    0.425D-03 0.358D-11
                            Exc = -115.140807502      Eck =  2262.75958510    
                         Ntotal = 164.99995661      Nspin =0.99997696081    
                             Na = 82.999966783         Nb = 81.999989822    
                            current damping = 0.500
 
          Norm of current diis error: 0.23008E-03
          max. resid. norm for Fia-block=  1.580D-05 for orbital     63a    beta 
          max. resid. fock norm         =  3.725D-04 for orbital    452a    alpha

 End of SCF iterations

   convergence criteria satisfied after    3 iterations


                  ------------------------------------------ 
                 |  total energy      =   -851.77084586169  |
                  ------------------------------------------ 
                 :  kinetic energy    =    790.36874659262  :
                 :  potential energy  =  -1642.13959245431  :
                 :  virial theorem    =      1.92791241968  :
                 :  wavefunction norm =      1.00000000000  :
                  .......................................... 


 orbitals $uhfmo_beta  will be written to file beta

 orbitals $uhfmo_alpha  will be written to file alpha
 
 alpha: 

    irrep                 79a         80a         81a         82a         83a   
 eigenvalues H         -0.10239    -0.10239    -0.10115    -0.08884     0.04673
            eV          -2.7863     -2.7862     -2.7524     -2.4175      1.2716
 occupation              1.0000      1.0000      1.0000      1.0000      1.0000 

    irrep                 84a         85a         86a         87a         88a   
 eigenvalues H          0.07324     0.11471     0.11748     0.11834     0.12094
            eV           1.9929      3.1215      3.1969      3.2204      3.2908
 
 beta:  

    irrep                 78a         79a         80a         81a         82a   
 eigenvalues H         -0.10513    -0.10051    -0.09982    -0.09855    -0.08758
            eV          -2.8609     -2.7350     -2.7163     -2.6817     -2.3832
 occupation              1.0000      1.0000      1.0000      1.0000      1.0000 

    irrep                 83a         84a         85a         86a         87a   
 eigenvalues H          0.08132     0.09585     0.11630     0.11860     0.11941
            eV           2.2129      2.6083      3.1646      3.2273      3.2492
 

    !!!!!!!!!!!!!!!!!!!!!!!!!!!!!!!!!!!!!!!!!!!!!!!!!!!!!!!!!!!!!!!!!!!!!!!
    !                                                                     !
    ! WARNING : ORBITAL ENERGIES SHOULD BE NEGATIVE FOR OCCUPIED ORBITALS !
    !                                                                     !
    !      orbital energy (   0.04673) of occupied MO  83a    is > 0      !
    !!!!!!!!!!!!!!!!!!!!!!!!!!!!!!!!!!!!!!!!!!!!!!!!!!!!!!!!!!!!!!!!!!!!!!!


                                             _ _ _ 
  IRREP     alpha occ.     beta occ.      tr(D*D-D)


 a         83.00000000    82.00000000    -0.25067385

   -------------------------------------------------

   sum     83.00000000    82.00000000    -0.25067385

 <S*S>     0.75134770

 
 
 
 ==============================================================================
                           electrostatic moments
 ==============================================================================

 reference point for electrostatic moments:    0.00000   0.00000   0.00000

 
              nuc           elec       ->  total
 ------------------------------------------------------------------------------
                          charge      
 ------------------------------------------------------------------------------
         164.000000    -165.000000      -1.000000
 a-b                                     1.000000
 
 ------------------------------------------------------------------------------
                       dipole moment  
 ------------------------------------------------------------------------------
   x       1.484839      -1.495115      -0.010276
   y      -2.668221       2.684457       0.016236
   z      -0.036735       0.036026      -0.000709
 
   | dipole moment | =     0.0192 a.u. =     0.0489 debye 
 
 ------------------------------------------------------------------------------
                     quadrupole moment
 ------------------------------------------------------------------------------
  xx    1250.846101   -1386.427448    -135.581347
  yy    2043.008587   -2192.196983    -149.188396
  zz    3938.904384   -4090.240686    -151.336302
  xy    -751.029841     760.688022       9.658181
  xz    1041.564629   -1047.030872      -5.466243
  yz     155.546974    -158.669335      -3.122361
 
     1/3  trace=    -145.368682
     anisotropy=      24.853977

 CONSTRUCTING NATURAL ORBITALS ...

    irrep  a   
      tr[ S**1/2 D S**1/2 ] :  165.000000000153
        occupation of NO's  :    1.999999999977
                                 1.999999999976
                                 1.999999999973
                                 1.999999999972
                                 1.999999999968
                                 1.999999999964
                                 1.999999999962
                                 1.999999999961
                                 1.999999999943
                                 1.999999999941
                                 1.999999999932
                                 1.999999999928
                                 1.999999999927
                                 1.999999999926
                                 1.999999999915
                                 1.999999999914
                                 1.999999999850
                                 1.999999999849
                                 1.999999999805
                                 1.999999999788
                                 1.999999979615
                                 1.999999971212
                                 1.999999969320
                                 1.999999968136
                                 1.999999964213
                                 1.999999960264
                                 1.999999954088
                                 1.999999953425
                                 1.999999946336
                                 1.999999939859
                                 1.999999934281
                                 1.999999932691
                                 1.999999928738
                                 1.999999926759
                                 1.999999921885
                                 1.999999911737
                                 1.999999908034
                                 1.999999898877
                                 1.999999874980
                                 1.999999871802
                                 1.999999865376
                                 1.999999863437
                                 1.999999842724
                                 1.999999836755
                                 1.999999790214
                                 1.999999788325
                                 1.999999647207
                                 1.999999599075
                                 1.999999592293
                                 1.999999548596
                                 1.999999498282
                                 1.999999494990
                                 1.999999483365
                                 1.999999477815
                                 1.999999318264
                                 1.999999313634
                                 1.999999284573
                                 1.999999021378
                                 1.999998920995
                                 1.999997953485
                                 1.999997814589
                                 1.999997653752
                                 1.999997602686
                                 1.999997283834
                                 1.999996925229
                                 1.999996819923
                                 1.999996387178
                                 1.999995861075
                                 1.999994435021
                                 1.999992330330
                                 1.999989682533
                                 1.999988509733
                                 1.999983009570
                                 1.999979294038
                                 1.999977017626
                                 1.999973678056
                                 1.999964639699
                                 1.999953697024
                                 1.999945053062
                                 1.999904543204
                                 1.999874503252
                                 1.999841522748
                                 1.000000000012
                                 0.000158477290
                                 0.000125496761
                                 0.000095456755
                                 0.000054946902
                                 0.000046302945
                                 0.000035360190
                                 0.000026321921
                                 0.000022982420
                                 0.000020705968
                                 0.000016990472
                                 0.000011490274
                                 0.000010317558
                                 0.000007669680
                                 0.000005565032
                                 0.000004138902
                                 0.000003612765
                                 0.000003180065
                                 0.000003074916
                                 0.000002716114
                                 0.000002397326
                                 0.000002346243
                                 0.000002185449
                                 0.000002046509
                                 0.000001078994
                                 0.000000978624
                                 0.000000715485
                                 0.000000686371
                                 0.000000681748
                                 0.000000522188
                                 0.000000516637
                                 0.000000505015
                                 0.000000501717
                                 0.000000451397
                                 0.000000407716
                                 0.000000400923
                                 0.000000352791
                                 0.000000211674
                                 0.000000209787
                                 0.000000163240
                                 0.000000157283
                                 0.000000136557
                                 0.000000134625
                                 0.000000128203
                                 0.000000125013
                                 0.000000101118
                                 0.000000091956
                                 0.000000088263
                                 0.000000078110
                                 0.000000073238
                                 0.000000071278
                                 0.000000067308
                                 0.000000065722
                                 0.000000060131
                                 0.000000053674
                                 0.000000046564
                                 0.000000045896
                                 0.000000039727
                                 0.000000035805
                                 0.000000031881
                                 0.000000030679
                                 0.000000028792
                                 0.000000020361
                                 0.000000000214
                                 0.000000000194
                                 0.000000000151
                                 0.000000000150
                                 0.000000000086
                                 0.000000000083
                                 0.000000000075
                                 0.000000000073
                                 0.000000000072
                                 0.000000000068
                                 0.000000000057
                                 0.000000000057
                                 0.000000000039
                                 0.000000000036
                                 0.000000000034
                                 0.000000000033
                                 0.000000000027
                                 0.000000000026
                                 0.000000000025
                                 0.000000000024
                                 0.000000000000
                                 0.000000000000
                                 0.000000000000
                                 0.000000000000
                                 0.000000000000
                                 0.000000000000
                                 0.000000000000
                                 0.000000000000
                                 0.000000000000
                                 0.000000000000
                                 0.000000000000
                                 0.000000000000
                                 0.000000000000
                                 0.000000000000
                                 0.000000000000
                                 0.000000000000
                                 0.000000000000
                                 0.000000000000
                                 0.000000000000
                                 0.000000000000
                                 0.000000000000
                                 0.000000000000
                                 0.000000000000
                                 0.000000000000
                                 0.000000000000
                                 0.000000000000
                                 0.000000000000
                                 0.000000000000
                                 0.000000000000
                                 0.000000000000
                                 0.000000000000
                                 0.000000000000
                                 0.000000000000
                                 0.000000000000
                                 0.000000000000
                                 0.000000000000
                                 0.000000000000
                                 0.000000000000
                                 0.000000000000
                                 0.000000000000
                                 0.000000000000
                                 0.000000000000
                                 0.000000000000
                                 0.000000000000
                                 0.000000000000
                                 0.000000000000
                                 0.000000000000
                                 0.000000000000
                                 0.000000000000
                                 0.000000000000
                                 0.000000000000
                                 0.000000000000
                                 0.000000000000
                                 0.000000000000
                                 0.000000000000
                                 0.000000000000
                                 0.000000000000
                                 0.000000000000
                                 0.000000000000
                                 0.000000000000
                                 0.000000000000
                                 0.000000000000
                                 0.000000000000
                                 0.000000000000
                                 0.000000000000
                                 0.000000000000
                                 0.000000000000
                                 0.000000000000
                                 0.000000000000
                                 0.000000000000
                                 0.000000000000
                                 0.000000000000
                                 0.000000000000
                                 0.000000000000
                                 0.000000000000
                                 0.000000000000
                                 0.000000000000
                                 0.000000000000
                                 0.000000000000
                                 0.000000000000
                                 0.000000000000
                                 0.000000000000
                                 0.000000000000
                                 0.000000000000
                                 0.000000000000
                                 0.000000000000
                                 0.000000000000
                                 0.000000000000
                                 0.000000000000
                                 0.000000000000
                                 0.000000000000
                                 0.000000000000
                                 0.000000000000
                                 0.000000000000
                                 0.000000000000
                                 0.000000000000
                                 0.000000000000
                                 0.000000000000
                                 0.000000000000
                                 0.000000000000
                                 0.000000000000
                                 0.000000000000
                                 0.000000000000
                                 0.000000000000
                                 0.000000000000
                                 0.000000000000
                                 0.000000000000
                                 0.000000000000
                                 0.000000000000
                                 0.000000000000
                                 0.000000000000
                                 0.000000000000
                                 0.000000000000
                                 0.000000000000
                                 0.000000000000
                                 0.000000000000
                                 0.000000000000
                                 0.000000000000
                                 0.000000000000
                                 0.000000000000
                                 0.000000000000
                                 0.000000000000
                                 0.000000000000
                                 0.000000000000
                                 0.000000000000
                                 0.000000000000
                                 0.000000000000
                                 0.000000000000
                                 0.000000000000
                                 0.000000000000
                                 0.000000000000
                                 0.000000000000
                                 0.000000000000
                                 0.000000000000
                                 0.000000000000
                                 0.000000000000
                                 0.000000000000
                                 0.000000000000
                                 0.000000000000
                                 0.000000000000
                                 0.000000000000
                                 0.000000000000
                                 0.000000000000
                                 0.000000000000
                                 0.000000000000
                                 0.000000000000
                                 0.000000000000
                                 0.000000000000
                                 0.000000000000
                                 0.000000000000
                                 0.000000000000
                                 0.000000000000
                                 0.000000000000
                                 0.000000000000
                                -0.000000000000
                                -0.000000000000
                                -0.000000000000
                                -0.000000000000
                                -0.000000000000
                                -0.000000000000
                                -0.000000000000
                                -0.000000000000
                                -0.000000000000
                                -0.000000000000
                                -0.000000000000
                                -0.000000000000
                                -0.000000000000
                                -0.000000000000
                                -0.000000000000
                                -0.000000000000
                                -0.000000000000
                                -0.000000000000
                                -0.000000000000
                                -0.000000000000
                                -0.000000000000
                                -0.000000000000
                                -0.000000000000
                                -0.000000000000
                                -0.000000000000
                                -0.000000000000
                                -0.000000000000
                                -0.000000000000
                                -0.000000000000
                                -0.000000000000
                                -0.000000000000
                                -0.000000000000
                                -0.000000000000
                                -0.000000000000
                                -0.000000000000
                                -0.000000000000
                                -0.000000000000
                                -0.000000000000
                                -0.000000000000
                                -0.000000000000
                                -0.000000000000
                                -0.000000000000
                                -0.000000000000
                                -0.000000000000
                                -0.000000000000
                                -0.000000000000
                                -0.000000000000
                                -0.000000000000
                                -0.000000000000
                                -0.000000000000
                                -0.000000000000
                                -0.000000000000
                                -0.000000000000
                                -0.000000000000
                                -0.000000000000
                                -0.000000000000
                                -0.000000000000
                                -0.000000000000
                                -0.000000000000
                                -0.000000000000
                                -0.000000000000
                                -0.000000000000
                                -0.000000000000
                                -0.000000000000
                                -0.000000000000
                                -0.000000000000
                                -0.000000000000
                                -0.000000000000
                                -0.000000000000
                                -0.000000000000
                                -0.000000000000
                                -0.000000000000
                                -0.000000000000
                                -0.000000000000
                                -0.000000000000
                                -0.000000000000
                                -0.000000000000
                                -0.000000000000
                                -0.000000000000
                                -0.000000000000
                                -0.000000000000
                                -0.000000000000
                                -0.000000000000
                                -0.000000000000
                                -0.000000000000
                                -0.000000000000
                                -0.000000000000
                                -0.000000000000
                                -0.000000000000
                                -0.000000000000
                                -0.000000000000
                                -0.000000000000
                                -0.000000000000
                                -0.000000000000
                                -0.000000000000
                                -0.000000000000
                                -0.000000000000
                                -0.000000000000
                                -0.000000000000
                                -0.000000000000
                                -0.000000000000
                                -0.000000000000
                                -0.000000000000
                                -0.000000000000
                                -0.000000000000
                                -0.000000000000
                                -0.000000000000
                                -0.000000000000
                                -0.000000000000
                                -0.000000000000
                                -0.000000000000
                                -0.000000000000
                                -0.000000000000
                                -0.000000000000
                                -0.000000000000
                                -0.000000000000
                                -0.000000000000
                                -0.000000000000
                                -0.000000000000
                                -0.000000000000
                                -0.000000000000
                                -0.000000000000
                                -0.000000000000
                                -0.000000000000
                                -0.000000000000
                                -0.000000000000
                                -0.000000000000
                                -0.000000000000
                                -0.000000000000
                                -0.000000000000
                                -0.000000000000
                                -0.000000000000
                                -0.000000000000
    Sum(occupation of NO's) :  165.000000000154
 
 <S*S>  0.751347701910163     

    irrep                 79a         80a         81a         82a         83a   
 occupation              1.9999      1.9999      1.9999      1.9998      1.0000 

    irrep                 84a         85a         86a         87a         88a   
 occupation              0.0002      0.0001 
 

 orbitals $natural orbitals  will be written to file natural
 
 ==============================================================================
 

    ridft profiling
  --------------------------------------------------------------------
             module   cpu total (s)       %  wall total (s)       %

               RIDFT            56.2  100.00            51.0  100.00
         Ridft_b_scf             3.2    5.72             1.6    3.20
        b_scf_prelim             0.0    0.00             0.0    0.00
        b_scf_molinp             0.0    0.02             0.0    0.02
         b_scf_init0             0.1    0.10             0.1    0.12
        b_scf_auxbas             0.0    0.01             0.0    0.02
      b_scf_symmetry             0.0    0.01             0.0    0.01
         b_scf_cosmo             0.0    0.00             0.0    0.00
        b_scf_params             0.1    0.17             0.1    0.29
          b_scf_ri-j             2.3    4.17             0.8    1.64
    b_scf_ri-j_auxpq             2.3    4.16             0.8    1.64
     ri-j_auxpq_chol             0.8    1.34             0.1    0.21
         b_scf_1elec             0.2    0.42             0.2    0.46
       b_scf_moinput             0.5    0.81             0.3    0.64
     prepare.moinput             0.3    0.49             0.3    0.54
     moinput_orthmos             0.2    0.32             0.0    0.09
    b_scf_dft-dstmax             0.0    0.00             0.0    0.00
           Ridft_scf            51.1   90.98            48.1   94.29
          Scf_b_loop             0.0    0.06             0.0    0.02
                noga             0.0    0.00             0.0    0.00
            Scf_loop            50.1   89.19            47.7   93.58
     scf_loop_mkdmat             0.1    0.23             0.0    0.07
       scf_loop_ri-j             1.0    1.76             0.3    0.49
    ri-j_near_lpdrc1             0.0    0.04             0.0    0.01
    ri-j_near_lpdrc2             0.0    0.02             0.0    0.01
       scf_loop_ex-K            19.7   35.07            19.2   37.68
         scf_loop_k1            18.8   33.47            18.7   36.64
     scf_loop_symcar             0.0    0.06             0.0    0.07
      scf_loop_dfmat             0.0    0.01             0.0    0.01
        scf_loop_dft            27.9   49.64            27.9   54.60
        dft_grid_con             1.2    2.16             1.2    2.38
         dft_xc_eval            26.3   46.87            26.3   51.55
     scf_loop_energy             0.0    0.00             0.0    0.00
     scf_loop_mkfock             0.0    0.00             0.0    0.00
       scf_loop_diis             0.3    0.53             0.1    0.15
       scf_loop_diag             1.1    1.88             0.3    0.52
          diag_rdiag             0.0    0.00             0.0    0.00
     scf_loop_modump             0.0    0.00             0.0    0.00
          Scf_a_loop             1.0    1.71             0.4    0.69
         Ridft_a_scf             1.8    3.29             1.3    2.50
         a_scf_fanal             1.8    3.29             1.3    2.50
 


    ------------------------------------------------------------------------
         total  cpu-time :  56.32 seconds
         total wall-time :  51.55 seconds
    ------------------------------------------------------------------------

   ****  ridft : all done  ****


    2018-01-23 16:13:08.540 

 ridft ended normally
fine, there is no data group "$actual step"
next step = rdgrad
 energy change  : actual value =  -0.3251E-06 threshold =   0.1000E-05
 geom. gradient : actual value =   0.2037E-03 threshold =   0.1000E-02

CONVERGENCY CRITERIA FULFILLED IN CYCLE 12

