[Molden Format]
[Title]
                                                                                
[Atoms] AU
 cl    1   17 -.13190716484219E+01 -.73965238972794E+00 0.23694217810025E+00
 o     2    8 -.34595392426185E+01 0.53079003793902E+01 0.24996680309637E+00
 h     3    1 -.38178375902845E+01 0.36216742342847E+01 0.53315808639040E-01
 h     4    1 -.28186101840910E+01 0.52901806860117E+01 -.16818231909715E+01
 o     5    8 0.26868026895311E+01 0.32575089554909E+01 -.74523494458554E+00
 h     6    1 0.11151118540272E+01 0.22152601349361E+01 -.46154541842276E+00
 o     7    8 0.37935786426249E+01 -.67043836812146E+01 -.17026306710457E+00
 h     8    1 0.31607277785074E+01 -.53014203529010E+01 0.81182430506346E+00
 h     9    1 -.33738708955195E+01 -.12109217247719E+02 0.51729794923272E+01
 h    10    1 0.38297617268731E+01 0.19577260536671E+01 -.13840732207913E+01
[GEOCONV]
energy
-.68878033016470E+03
-.68877243443540E+03
-.68879140033710E+03
-.68878133057810E+03
-.68879880858580E+03
-.68878815774320E+03
-.68881092648000E+03
-.68879925577330E+03
-.68881695310590E+03
-.68879791082210E+03
-.68881227550820E+03
-.68880849967250E+03
-.68880777065520E+03
-.68879207808530E+03
-.68878526868590E+03
-.68878999517840E+03
-.68878220803530E+03
-.68879111988530E+03
-.68878658703870E+03
-.68879813836350E+03
-.68879877335940E+03
-.68881244921680E+03
-.68880754879160E+03
-.68881893035940E+03
-.68881967598880E+03
-.68882617650300E+03
-.68881511973090E+03
-.68882013898680E+03
-.68881801090230E+03
-.68881646111720E+03
-.68880493311780E+03
-.68880574681000E+03
-.68880281843880E+03
-.68880383016850E+03
-.68879981258420E+03
-.68880124017400E+03
-.68880156966130E+03
-.68880316594300E+03
-.68880569094250E+03
-.68880621032390E+03
-.68881255888850E+03
-.68881417360510E+03
-.68881939947200E+03
-.68882101757080E+03
-.68882682067470E+03
-.68882386973310E+03
-.68882376185490E+03
-.68882179819690E+03
-.68882138051750E+03
-.68881235764010E+03
-.68880861998900E+03
-.68880492433150E+03
-.68880632979810E+03
-.68881275919540E+03
-.68881887815640E+03
-.68882274546430E+03
-.68881943451810E+03
-.68882223383460E+03
-.68882166153840E+03
-.68882187731900E+03
-.68882262324270E+03
-.68882266890040E+03
-.68882158395730E+03
-.68881395626530E+03
-.68881636585860E+03
-.68881854251360E+03
-.68882314882750E+03
-.68882538874510E+03
-.68882488758370E+03
-.68882322750640E+03
-.68881466488960E+03
-.68881566436420E+03
-.68880846134890E+03
-.68880924386800E+03
-.68879689808610E+03
-.68880368082010E+03
-.68879237807280E+03
-.68880297045450E+03
-.68879608783880E+03
-.68881173272030E+03
-.68880801615020E+03
-.68882292566470E+03
-.68881218775280E+03
-.68882903223710E+03
-.68881597552080E+03
-.68882905264230E+03
-.68882198920870E+03
-.68883492952050E+03
-.68881639152560E+03
-.68882405705400E+03
-.68881677827000E+03
-.68882864368160E+03
-.68882006155450E+03
-.68882440826540E+03
-.68882122250930E+03
-.68882855756910E+03
-.68882330244180E+03
-.68882632830020E+03
-.68882627329490E+03
-.68882613852840E+03
-.68881729011680E+03
-.68882180822050E+03
-.68881446160240E+03
-.68881735944750E+03
-.68879676262730E+03
-.68879113864050E+03
-.68878111593690E+03
-.68879864060230E+03
-.68875648134590E+03
-.68875206652440E+03
-.68871232782270E+03
-.68869432325110E+03
-.68875102352260E+03
-.68877251848910E+03
-.68872920235370E+03
-.68866759082150E+03
-.68859248410510E+03
-.68854646401340E+03
-.68854972944270E+03
-.68853824662400E+03
-.68853862977750E+03
-.68852420573560E+03
max-force
0.84100000000000E-01
0.15018800000000E+00
0.78031000000000E-01
0.23670500000000E+00
0.11531600000000E+00
0.18972300000000E+00
0.92500000000000E-01
0.24228600000000E+00
0.10775600000000E+00
0.18087500000000E+00
0.11713200000000E+00
0.14985600000000E+00
0.96633000000000E-01
0.14778900000000E+00
0.13731900000000E+00
0.13187800000000E+00
0.23205200000000E+00
0.12385200000000E+00
0.14143700000000E+00
0.13665200000000E+00
0.20515700000000E+00
0.96166000000000E-01
0.15138400000000E+00
0.13228200000000E+00
0.16337800000000E+00
0.91991000000000E-01
0.15441500000000E+00
0.12390100000000E+00
0.13854400000000E+00
0.10287500000000E+00
0.14409200000000E+00
0.11444700000000E+00
0.13051100000000E+00
0.10866300000000E+00
0.13287700000000E+00
0.11070800000000E+00
0.12256600000000E+00
0.12078700000000E+00
0.12296800000000E+00
0.13661200000000E+00
0.11480300000000E+00
0.12287200000000E+00
0.11778100000000E+00
0.14166300000000E+00
0.11235900000000E+00
0.13427600000000E+00
0.11077600000000E+00
0.11232500000000E+00
0.99850000000000E-01
0.14783500000000E+00
0.10516400000000E+00
0.11590700000000E+00
0.11563900000000E+00
0.10809000000000E+00
0.10407600000000E+00
0.10194000000000E+00
0.13295600000000E+00
0.11706200000000E+00
0.10396900000000E+00
0.10397800000000E+00
0.11662000000000E+00
0.11085700000000E+00
0.10383900000000E+00
0.13887200000000E+00
0.11218000000000E+00
0.10384200000000E+00
0.11193900000000E+00
0.12363800000000E+00
0.11446900000000E+00
0.91002000000000E-01
0.16803200000000E+00
0.10267400000000E+00
0.12564500000000E+00
0.85744000000000E-01
0.18197200000000E+00
0.11099700000000E+00
0.17275800000000E+00
0.84857000000000E-01
0.19800100000000E+00
0.97231000000000E-01
0.16084300000000E+00
0.86685000000000E-01
0.21198000000000E+00
0.79267000000000E-01
0.17440500000000E+00
0.10163300000000E+00
0.16513400000000E+00
0.59722000000000E-01
0.18683000000000E+00
0.96597000000000E-01
0.16378900000000E+00
0.92604000000000E-01
0.18331900000000E+00
0.12981700000000E+00
0.13406000000000E+00
0.11166100000000E+00
0.20046800000000E+00
0.14054900000000E+00
0.14115100000000E+00
0.18152300000000E+00
0.22554500000000E+00
0.14049000000000E+00
0.16246300000000E+00
0.17758200000000E+00
0.33338000000000E+00
0.21123500000000E+00
0.19401100000000E+00
0.21557200000000E+00
0.55848300000000E+00
0.26891700000000E+00
0.18251800000000E+00
0.28725400000000E+00
0.21254800000000E+00
0.30173400000000E+00
0.70802100000000E+00
0.27884700000000E+00
0.14726100000000E+00
0.19171100000000E+00
0.12357100000000E+00
0.19050800000000E+00
0.10965300000000E+00
0.15066100000000E+00
[GEOMETRIES] XYZ
    10

 cl -.22891990193782E+00 -.40067819241656E+00 0.89805257931231E+00
 o  -.22529399098935E+01 0.21856618177494E+01 -.56843742645192E+00
 h  -.30791799131411E+01 0.27245618198676E+01 -.48226742611322E+00
 h  -.25740499111557E+01 0.12548918140909E+01 -.67396742686672E+00
 o  0.18399301061941E+01 0.21263018175161E+01 -.72642742707292E+00
 h  0.16560801054714E+01 0.22038718178210E+01 0.24351257673955E+00
 o  0.87294010239318E+00 -.35193682046750E+01 -.53375742631561E+00
 h  0.10117801029389E+01 -.27570982016788E+01 -.11502774287389E+01
 h  0.13162101041355E+01 -.32420782035851E+01 0.30735257699049E+00
 h  0.24204601084759E+01 0.13279918143782E+01 -.80573742738466E+00
    10

 cl -.23364510183846E+00 -.39883970252228E+00 0.89781072164290E+00
 o  -.22468092302276E+01 0.21971242467033E+01 -.56589766711932E+00
 h  -.30347337769542E+01 0.26979507040881E+01 -.47069664522591E+00
 h  -.25895007060232E+01 0.12002849282916E+01 -.66516359968928E+00
 o  0.18376437194155E+01 0.21270264250724E+01 -.72611647321420E+00
 h  0.16109945669538E+01 0.21651677907086E+01 0.22105724746364E+00
 o  0.88426350460419E+00 -.35346189292833E+01 -.53555028072392E+00
 h  0.97130395780692E+00 -.27152889840229E+01 -.11558426656594E+01
 h  0.13108252640576E+01 -.31950934243647E+01 0.33795296961729E+00
 h  0.24078540035802E+01 0.13430848344062E+01 -.83697636032151E+00
    10

 cl -.23808454850827E+00 -.39711449498544E+00 0.89741535162782E+00
 o  -.22408024303298E+01 0.21998715477262E+01 -.56499861848794E+00
 h  -.30384294500110E+01 0.26923342217017E+01 -.45334493272330E+00
 h  -.25495165622723E+01 0.12658575291063E+01 -.63267384008394E+00
 o  0.18370306009224E+01 0.21282343550861E+01 -.72570762675705E+00
 h  0.15608979158232E+01 0.21001189799018E+01 0.17612642387719E+00
 o  0.89939754754380E+00 -.35444767365242E+01 -.53664008783661E+00
 h  0.91545360264208E+00 -.27409706649116E+01 -.10828502522495E+01
 h  0.12517237355281E+01 -.31599571644465E+01 0.28272004767392E+00
 h  0.23669508057457E+01 0.13717126682956E+01 -.84928306803884E+00
    10

 cl -.24221719971267E+00 -.39551929893809E+00 0.89683230237107E+00
 o  -.22340754614215E+01 0.21997546810849E+01 -.56510596062043E+00
 h  -.30764413803233E+01 0.27029076124667E+01 -.43053379456174E+00
 h  -.24813892427763E+01 0.13631516771515E+01 -.58648997952652E+00
 o  0.18360927838204E+01 0.21341322443815E+01 -.72770634047161E+00
 h  0.14857299575808E+01 0.20126839662042E+01 0.16608578448698E+00
 o  0.91600043363990E+00 -.35535955629798E+01 -.53795975460161E+00
 h  0.84553378170784E+00 -.27713172928630E+01 -.10001846344349E+01
 h  0.11745916373037E+01 -.31238638234589E+01 0.22627753744362E+00
 h  0.23489836753776E+01 0.13424066238261E+01 -.85965617706696E+00
    10

 cl -.24601654230420E+00 -.39406102182280E+00 0.89602541644752E+00
 o  -.22264041740328E+01 0.22165245932021E+01 -.56496778489649E+00
 h  -.30723409412762E+01 0.26843017125717E+01 -.41358088486993E+00
 h  -.24652130445763E+01 0.12233597549227E+01 -.53539859838873E+00
 o  0.18355694773384E+01 0.21419609861519E+01 -.72933039560298E+00
 h  0.13959933442958E+01 0.19093974928248E+01 0.14774021685047E+00
 o  0.93243603480629E+00 -.35708429667128E+01 -.54128064077251E+00
 h  0.74495206305137E+00 -.26996106630453E+01 -.10053685157407E+01
 h  0.11220370778142E+01 -.30506899383254E+01 0.29515745039257E+00
 h  0.23308504764060E+01 0.12911930741075E+01 -.86848344207923E+00
    10

 cl -.24949660443559E+00 -.39274759766617E+00 0.89493156863570E+00
 o  -.22216188838103E+01 0.22295171512732E+01 -.56501989455148E+00
 h  -.30479739599994E+01 0.26427399275591E+01 -.39925756510938E+00
 h  -.24169234619153E+01 0.11678722985712E+01 -.47506746207142E+00
 o  0.18359366951308E+01 0.21463645236419E+01 -.72749056904820E+00
 h  0.13147216271052E+01 0.18114485254077E+01 0.70216175338118E-01
 o  0.94952640406256E+00 -.35813047693879E+01 -.54316716581315E+00
 h  0.63970755694881E+00 -.26815694619087E+01 -.10050268083695E+01
 h  0.10548575182776E+01 -.30194231462133E+01 0.34224660537556E+00
 h  0.22810752829336E+01 0.12805796724484E+01 -.87305726443669E+00
    10

 cl -.25269507011649E+00 -.39157568281425E+00 0.89348570236602E+00
 o  -.22157555211791E+01 0.22326152815952E+01 -.56554092819992E+00
 h  -.30724753623934E+01 0.26133659922392E+01 -.37321734703825E+00
 h  -.23289096302911E+01 0.12578196485974E+01 -.41500815694134E+00
 o  0.18359832920700E+01 0.21467702161922E+01 -.72197193847486E+00
 h  0.12397004203670E+01 0.17379351939474E+01 -.54492562500326E-01
 o  0.96536065243870E+00 -.35800578593453E+01 -.54204138934365E+00
 h  0.55854984922224E+00 -.27663702067374E+01 -.97046090886887E+00
 h  0.97523572537886E+00 -.30574875282385E+01 0.31404703807306E+00
 h  0.22204068638512E+01 0.12996124202241E+01 -.88716072174496E+00
    10

 cl -.25565774140456E+00 -.39051814098986E+00 0.89164189365272E+00
 o  -.22099921171250E+01 0.22332056273789E+01 -.56641339773853E+00
 h  -.31074313656569E+01 0.25805855108167E+01 -.34225465182618E+00
 h  -.22208388431645E+01 0.13904002793617E+01 -.35065152075733E+00
 o  0.18343902408990E+01 0.21469128837845E+01 -.71405850180940E+00
 h  0.11433186592618E+01 0.16920599196120E+01 -.18056856076882E+00
 o  0.97933359445436E+00 -.35721430533226E+01 -.53910746944585E+00
 h  0.49317637323202E+00 -.29020340292616E+01 -.93836792978252E+00
 h  0.90274493635019E+00 -.31362734705414E+01 0.26603266328104E+00
 h  0.21973142580835E+01 0.12854294306314E+01 -.93392743354786E+00
    10

 cl -.25845499337858E+00 -.38951816999828E+00 0.88937523972110E+00
 o  -.22072750546683E+01 0.22508714101901E+01 -.57120996801917E+00
 h  -.30975996443993E+01 0.25243238482969E+01 -.31911273095124E+00
 h  -.21016523652004E+01 0.12733914344725E+01 -.21319431484684E+00
 o  0.18314602476307E+01 0.21447844127518E+01 -.70482499845849E+00
 h  0.10285192067003E+01 0.16760487279549E+01 -.29804396495851E+00
 o  0.99603163384701E+00 -.35700289587532E+01 -.53841071139200E+00
 h  0.36933457659161E+00 -.29665552322010E+01 -.99029008055429E+00
 h  0.84091508284650E+00 -.31803236035102E+01 0.34314918085409E+00
 h  0.22049404004296E+01 0.12675410925594E+01 -.10039376831139E+01
    10

 cl -.26130493768920E+00 -.38847896125333E+00 0.88664552317654E+00
 o  -.22042799122726E+01 0.22628616137570E+01 -.57440564826577E+00
 h  -.30831848710956E+01 0.24564257526731E+01 -.29113908000387E+00
 h  -.19800709928612E+01 0.12527948745404E+01 -.10155729077114E+00
 o  0.18263017271128E+01 0.21361382174189E+01 -.69519558634348E+00
 h  0.94351234974214E+00 0.17011565193532E+01 -.42225442177546E+00
 o  0.10105828908984E+01 -.35661134823934E+01 -.53718417051995E+00
 h  0.26414315408669E+00 -.30433945715878E+01 -.10430367573083E+01
 h  0.79180421890786E+00 -.32276937959073E+01 0.41685448496898E+00
 h  0.22110994179202E+01 0.13028365588429E+01 -.10657577157774E+01
    10

 cl -.26440523827640E+00 -.38729743594807E+00 0.88345141550208E+00
 o  -.21970059943473E+01 0.22653019311980E+01 -.57460307848894E+00
 h  -.31055784962146E+01 0.23887331630797E+01 -.24481010558125E+00
 h  -.18747884175752E+01 0.13740104905676E+01 -.50438320352696E-01
 o  0.18178095452567E+01 0.21224006122439E+01 -.68593597924755E+00
 h  0.91217926678722E+00 0.17615545835503E+01 -.54825208232168E+00
 o  0.10185429548715E+01 -.35573929766146E+01 -.53355227513700E+00
 h  0.24075855724443E+00 -.31664390067660E+01 -.10376818374780E+01
 h  0.76419119521001E+00 -.32932363980500E+01 0.39699612577021E+00
 h  0.22116524292539E+01 0.13761316473865E+01 -.11116950013543E+01
    10

 cl -.26779221453432E+00 -.38594335058973E+00 0.87985057458953E+00
 o  -.21887341989909E+01 0.22613746530011E+01 -.57073156510726E+00
 h  -.31072281773827E+01 0.23139125158321E+01 -.20106134369302E+00
 h  -.17928392906508E+01 0.15919477227189E+01 -.56860719632734E-01
 o  0.18066620018783E+01 0.21097717350070E+01 -.67629352851439E+00
 h  0.90045221186466E+00 0.18287963721436E+01 -.66018644855865E+00
 o  0.10220965284893E+01 -.35470852166751E+01 -.52882103622281E+00
 h  0.27219515501270E+00 -.33052379780384E+01 -.99367405975057E+00
 h  0.75125938683387E+00 -.33571847319235E+01 0.32297771435648E+00
 h  0.22318786853362E+01 0.14191845922340E+01 -.11698084375379E+01
    10

 cl -.27140501272058E+00 -.38445655423082E+00 0.87592253985558E+00
 o  -.21859827217515E+01 0.22617280292964E+01 -.56861825640977E+00
 h  -.30590535600964E+01 0.22340347714180E+01 -.17444964360027E+00
 h  -.16645345268616E+01 0.17362924733597E+01 -.15476717042193E-01
 o  0.17971721865673E+01 0.20997324861254E+01 -.66677006556941E+00
 h  0.85440837155708E+00 0.18740111820273E+01 -.75609865107033E+00
 o  0.10324420485660E+01 -.35409991229164E+01 -.52713226807314E+00
 h  0.21973365797803E+00 -.34056415883655E+01 -.10117292647738E+01
 h  0.71461927465635E+00 -.33820665691882E+01 0.36076518233826E+00
 h  0.22591194487975E+01 0.14387066147880E+01 -.12346891604641E+01
    10

 cl -.27524916116243E+00 -.38280898283639E+00 0.87173267704601E+00
 o  -.21865726319993E+01 0.22664235096572E+01 -.57058378672230E+00
 h  -.30117553132773E+01 0.21493255509615E+01 -.14271719889443E+00
 h  -.14757507623641E+01 0.18043903917298E+01 0.87933302014069E-01
 o  0.17887055010772E+01 0.20890893086543E+01 -.65948672095593E+00
 h  0.82385433341487E+00 0.19042440588067E+01 -.83987087659520E+00
 o  0.10433094010493E+01 -.35364402070461E+01 -.52586825628545E+00
 h  0.15831283817309E+00 -.34933737977676E+01 -.10412503524345E+01
 h  0.67940029692500E+00 -.33854606403619E+01 0.41716386333168E+00
 h  0.22552612484622E+01 0.14792907684191E+01 -.12697173783819E+01
    10

 cl -.27935229970677E+00 -.38088211406183E+00 0.86733355341974E+00
 o  -.21788225225032E+01 0.22693763565901E+01 -.56981794382892E+00
 h  -.30037001787226E+01 0.20493274991152E+01 -.79435695933289E-01
 h  -.13735413561410E+01 0.18987280792269E+01 0.11923804704114E+00
 o  0.17784197362159E+01 0.20778789279461E+01 -.65468535531850E+00
 h  0.84838086603621E+00 0.19280167700432E+01 -.90377676852016E+00
 o  0.10470504541468E+01 -.35321692377894E+01 -.52258653501320E+00
 h  0.17861144325117E+00 -.35746639623633E+01 -.10234046490605E+01
 h  0.67676240304096E+00 -.33813573230652E+01 0.39361976635536E+00
 h  0.22263524638364E+01 0.15327605580351E+01 -.12801366819157E+01
    10

 cl -.28369865709264E+00 -.37866529198401E+00 0.86276882322988E+00
 o  -.21657877808561E+01 0.22699513923493E+01 -.56241015283369E+00
 h  -.29549406736573E+01 0.19483399313838E+01 -.27555303775188E-01
 h  -.13899693442986E+01 0.20142832409107E+01 0.58960523953753E-01
 o  0.17662049686587E+01 0.20689233941475E+01 -.64956150677861E+00
 h  0.88533543569832E+00 0.19436212695336E+01 -.94798573299649E+00
 o  0.10455982455726E+01 -.35288974987808E+01 -.51804129074087E+00
 h  0.25687760843320E+00 -.36439248494308E+01 -.97694617228911E+00
 h  0.69979731912458E+00 -.33643244017399E+01 0.32051332747170E+00
 h  0.22168221750974E+01 0.15567025429540E+01 -.13110478996701E+01
    10

 cl -.28826852381039E+00 -.37627828715616E+00 0.85806640609966E+00
 o  -.21524788082745E+01 0.22691543553693E+01 -.54976157660374E+00
 h  -.28437716567569E+01 0.18615850998012E+01 -.11106823819872E-01
 h  -.14679416101936E+01 0.21237667482257E+01 -.47508285005421E-01
 o  0.17566249700855E+01 0.20619406162250E+01 -.64392107335444E+00
 h  0.86049337172622E+00 0.19454689844770E+01 -.98751838653686E+00
 o  0.10504934367183E+01 -.35273601331938E+01 -.51553904251972E+00
 h  0.25765261923653E+00 -.37178113283346E+01 -.99162308109351E+00
 h  0.70056494056290E+00 -.33060055617187E+01 0.34006530059721E+00
 h  0.22288000510025E+01 0.15615163989705E+01 -.13506746779819E+01
    10

 cl -.29307453275460E+00 -.37383711596449E+00 0.85324566910799E+00
 o  -.21542622697948E+01 0.22719930378313E+01 -.54654616071783E+00
 h  -.27284331919125E+01 0.17706185069971E+01 -.60965124283122E-02
 h  -.13049238101148E+01 0.21695623405078E+01 0.85531830975793E-02
 o  0.17483173238166E+01 0.20544263202451E+01 -.64176943079148E+00
 h  0.82705926442202E+00 0.19397767327428E+01 -.10042206722119E+01
 o  0.10578132693215E+01 -.35272196292610E+01 -.51335311430503E+00
 h  0.22791748966198E+00 -.37913857954611E+01 -.10286680468353E+01
 h  0.69392565212286E+00 -.32161778985982E+01 0.38561303291328E+00
 h  0.22311849968366E+01 0.15807509357652E+01 -.13535635238659E+01
    10

 cl -.29810800122226E+00 -.37131541570577E+00 0.84832799401494E+00
 o  -.21496515575535E+01 0.22774180387873E+01 -.54240135533836E+00
 h  -.26491177545280E+01 0.16359036416033E+01 0.29684137360158E-01
 h  -.12010448461442E+01 0.22061370663323E+01 0.21155104581975E-01
 o  0.17381839923336E+01 0.20464400894249E+01 -.64369852865880E+00
 h  0.83313837903007E+00 0.19302845974675E+01 -.98344325443553E+00
 o  0.10601721176984E+01 -.35281767176712E+01 -.50935598545636E+00
 h  0.25800863824755E+00 -.38342945017079E+01 -.10165173199224E+01
 h  0.70614690758760E+00 -.31290644045817E+01 0.35126821053047E+00
 h  0.22247026856872E+01 0.16096661450159E+01 -.13258657547150E+01
    10

 cl -.30336593294015E+00 -.36870664923624E+00 0.84330816012604E+00
 o  -.21382120975728E+01 0.22812208791916E+01 -.53119146356404E+00
 h  -.25398874324945E+01 0.15208203533572E+01 0.33990507754291E-01
 h  -.12281643760083E+01 0.22362298787554E+01 -.44242954159135E-01
 o  0.17261591204865E+01 0.20403738643535E+01 -.64559379395979E+00
 h  0.84697393638159E+00 0.19113003717956E+01 -.94072232215129E+00
 o  0.10592314136681E+01 -.35297847417944E+01 -.50354718791827E+00
 h  0.32850274117083E+00 -.38474766071362E+01 -.96237805930040E+00
 h  0.72955173146208E+00 -.30501639158719E+01 0.24445340293999E+00
 h  0.22418588272180E+01 0.16157956045213E+01 -.13179845005972E+01
    10

 cl -.30887364291011E+00 -.36603611748413E+00 0.83814021481711E+00
 o  -.21238291837182E+01 0.22808441259567E+01 -.51328465608621E+00
 h  -.23939550702580E+01 0.14618538283244E+01 -.19260416454221E-01
 h  -.13300737875368E+01 0.22650868187187E+01 -.15506617366157E+00
 o  0.17170304153340E+01 0.20368302436100E+01 -.64590735886421E+00
 h  0.80345636001785E+00 0.18687789369112E+01 -.90466490699956E+00
 o  0.10646393099371E+01 -.35317570950186E+01 -.49664138430041E+00
 h  0.32004274208263E+00 -.38815019789319E+01 -.94617960849321E+00
 h  0.72971140790945E+00 -.29332474512118E+01 0.15747256240918E+00
 h  0.22719855857407E+01 0.16031865741178E+01 -.13259264495701E+01
    10

 cl -.31464881823829E+00 -.36333440571414E+00 0.83273923664460E+00
 o  -.21240141897988E+01 0.22776221677452E+01 -.49903258602213E+00
 h  -.22520228475029E+01 0.14224206256277E+01 -.10401634527709E+00
 h  -.11870080835458E+01 0.23092172426507E+01 -.17183543107879E+00
 o  0.17097199460843E+01 0.20340760450578E+01 -.64767316158668E+00
 h  0.76347138692019E+00 0.18044442522374E+01 -.86432639959997E+00
 o  0.10742246890481E+01 -.35351868647916E+01 -.48992215275077E+00
 h  0.26747731798307E+00 -.39226296075333E+01 -.94634578525835E+00
 h  0.70520385040766E+00 -.27738471209228E+01 0.90323400569936E-01
 h  0.22717471307175E+01 0.15967539830939E+01 -.13119067970426E+01
    10

 cl -.32061110453145E+00 -.36063182588575E+00 0.82700251695844E+00
 o  -.21203155727205E+01 0.22758571179549E+01 -.48404258357034E+00
 h  -.21297485857273E+01 0.13342616063963E+01 -.17872235960288E+00
 h  -.10777371481823E+01 0.23692731222455E+01 -.20374606412844E+00
 o  0.17006175312666E+01 0.20318073890088E+01 -.65093802114171E+00
 h  0.78348035987209E+00 0.17271519728141E+01 -.81097925439330E+00
 o  0.10793889861084E+01 -.35373815025821E+01 -.48228346998377E+00
 h  0.26507159599345E+00 -.39248075278228E+01 -.90799545653044E+00
 h  0.69677075065484E+00 -.26587401976943E+01 -.27786876741310E-01
 h  0.22421928934405E+01 0.15908157248992E+01 -.12840696700205E+01
    10

 cl -.32670276937532E+00 -.35794847089277E+00 0.82080097917150E+00
 o  -.21070100380354E+01 0.22726347034135E+01 -.46601741554808E+00
 h  -.20133056877774E+01 0.12613822119728E+01 -.26067567564954E+00
 h  -.11077659650381E+01 0.24290081064527E+01 -.26862125614274E+00
 o  0.16890522486484E+01 0.20318839085972E+01 -.65299607051345E+00
 h  0.83471565364574E+00 0.16331126298299E+01 -.74769984299748E+00
 o  0.10794598635941E+01 -.35354923485388E+01 -.47312733460612E+00
 h  0.30588043930264E+00 -.38969037950047E+01 -.84188327859616E+00
 h  0.72108089412087E+00 -.26236107831901E+01 -.19319952454084E+00
 h  0.22224782372355E+01 0.15581988905968E+01 -.12815098407799E+01
    10

 cl -.33291048797098E+00 -.35524242282334E+00 0.81400017382567E+00
 o  -.20865903721787E+01 0.22643199516643E+01 -.44602198077830E+00
 h  -.19091513865833E+01 0.12618051177598E+01 -.35204828741100E+00
 h  -.12306189081885E+01 0.24892377041036E+01 -.34673868498300E+00
 o  0.16789752359832E+01 0.20347008646232E+01 -.65471544822070E+00
 h  0.85377034165987E+00 0.15039979211790E+01 -.67226141653804E+00
 o  0.10811861611881E+01 -.35278416230854E+01 -.46132058150538E+00
 h  0.28888873847821E+00 -.39004672797616E+01 -.80442715290553E+00
 h  0.77243710571532E+00 -.26356325823308E+01 -.36559602543051E+00
 h  0.22120244344116E+01 0.15104851676932E+01 -.12905075888820E+01
    10

 cl -.33918278752071E+00 -.35243524791286E+00 0.80648332459462E+00
 o  -.20753407201633E+01 0.22477914782395E+01 -.42749056397414E+00
 h  -.18261604803364E+01 0.13193223501538E+01 -.43677399429542E+00
 h  -.11796780395019E+01 0.26164604567554E+01 -.39953706674528E+00
 o  0.16688458287020E+01 0.20360734245154E+01 -.65897438510021E+00
 h  0.88512445099959E+00 0.13724638107836E+01 -.57081301561392E+00
 o  0.10852410082727E+01 -.35212290684884E+01 -.44954674736233E+00
 h  0.23525147516910E+00 -.39354704773327E+01 -.78367285229951E+00
 h  0.81990335726811E+00 -.25898943250359E+01 -.51349131853583E+00
 h  0.21888068701865E+01 0.14809278662432E+01 -.12761359392593E+01
    10

 cl -.34535540962366E+00 -.34950300196099E+00 0.79817196340202E+00
 o  -.20633305837927E+01 0.22326081960503E+01 -.40989415557306E+00
 h  -.17415740387536E+01 0.13468725293295E+01 -.50419242959965E+00
 h  -.11374448488141E+01 0.27480024395526E+01 -.44735588842621E+00
 o  0.16554175686931E+01 0.20327732860708E+01 -.66515765404646E+00
 h  0.96705020813799E+00 0.12848953891468E+01 -.44317648679090E+00
 o  0.10854397746989E+01 -.35163064939202E+01 -.44015070170904E+00
 h  0.23709558222800E+00 -.39489515814764E+01 -.73784451684883E+00
 h  0.86957842506270E+00 -.25306617422912E+01 -.64037588831877E+00
 h  0.21624960082107E+01 0.14732327985847E+01 -.12454130623825E+01
    10

 cl -.35127456162843E+00 -.34644344387453E+00 0.78904077116508E+00
 o  -.20452455965461E+01 0.22247859765706E+01 -.39336397454688E+00
 h  -.16368014296226E+01 0.13211605662884E+01 -.55634794457736E+00
 h  -.12076451655128E+01 0.28125394329189E+01 -.48669509586159E+00
 o  0.16373181601768E+01 0.20253374838245E+01 -.67036051846184E+00
 h  0.10857322543294E+01 0.12567060571862E+01 -.29778018298544E+00
 o  0.10817360389342E+01 -.35080000239510E+01 -.43382504318008E+00
 h  0.28584837610899E+00 -.39341093087862E+01 -.67142837956384E+00
 h  0.93059860263759E+00 -.25466033947594E+01 -.72991069708566E+00
 h  0.21642862824720E+01 0.14637975183736E+01 -.12353806202275E+01
    10

 cl -.35685981342389E+00 -.34325191417605E+00 0.77914026266904E+00
 o  -.20213478998751E+01 0.22181472239032E+01 -.37904897578829E+00
 h  -.15464767838618E+01 0.13339156768603E+01 -.57717164155648E+00
 h  -.13517763869115E+01 0.28163951492522E+01 -.51400317054589E+00
 o  0.16167860807459E+01 0.20145501784069E+01 -.67424734796719E+00
 h  0.12094157229655E+01 0.12725064482798E+01 -.14303895695212E+00
 o  0.10813105229598E+01 -.34938792715391E+01 -.42877307440682E+00
 h  0.27893977175808E+00 -.39389954411364E+01 -.61785857426849E+00
 h  0.99203958359859E+00 -.26296298573281E+01 -.77771421924918E+00
 h  0.21873153778749E+01 0.14568189689025E+01 -.12455556507608E+01
    10

 cl -.36205872340067E+00 -.33992329863111E+00 0.76859091031703E+00
 o  -.20015862372745E+01 0.22027074206555E+01 -.36574077703306E+00
 h  -.14865987893579E+01 0.14026218803466E+01 -.55770288171987E+00
 h  -.13965903196844E+01 0.29006539866606E+01 -.55634513009397E+00
 o  0.15971130381327E+01 0.20004131686958E+01 -.67830945951010E+00
 h  0.13209463573351E+01 0.13116224500950E+01 0.89611722037485E-02
 o  0.10850275404928E+01 -.34826320693169E+01 -.42233731157990E+00
 h  0.22494044191026E+00 -.39548690362969E+01 -.57335572222486E+00
 h  0.10324806439439E+01 -.26516825349258E+01 -.83103975738583E+00
 h  0.21944585201609E+01 0.14736218210983E+01 -.12442250694361E+01
    10

 cl -.36680794886227E+00 -.33648140123628E+00 0.75754480106484E+00
 o  -.19842258318298E+01 0.21863443731798E+01 -.35306273083744E+00
 h  -.14188892182279E+01 0.14610605623114E+01 -.51451374234153E+00
 h  -.14088873791930E+01 0.30073039349739E+01 -.60409495867919E+00
 o  0.15782840241673E+01 0.19835464296019E+01 -.68090786087717E+00
 h  0.14224525012618E+01 0.13774781882942E+01 0.12507563861931E+00
 o  0.10876011050791E+01 -.34788407307580E+01 -.41451864420694E+00
 h  0.21476162878000E+00 -.39247024196796E+01 -.52301963462595E+00
 h  0.10453428728741E+01 -.25975458756639E+01 -.90511449496062E+00
 h  0.21822068336923E+01 0.15014779986344E+01 -.12282652359744E+01
    10

 cl -.37109069894390E+00 -.33297289997999E+00 0.74610787917863E+00
 o  -.19672792689917E+01 0.21801046587998E+01 -.34206402534544E+00
 h  -.12936471115806E+01 0.14507103856874E+01 -.46406845356425E+00
 h  -.14710168618914E+01 0.30199392968800E+01 -.62502155333388E+00
 o  0.15583231775055E+01 0.19663465240317E+01 -.67881939389070E+00
 h  0.15120583251290E+01 0.14688610768839E+01 0.17710684279398E+00
 o  0.10893690875956E+01 -.34737121767031E+01 -.40940695395022E+00
 h  0.23714537229416E+00 -.38533059320512E+01 -.47236347709788E+00
 h  0.10365284337078E+01 -.26019264820635E+01 -.92894235949818E+00
 h  0.21842523625555E+01 0.15048600420576E+01 -.12240100510341E+01
    10

 cl -.37495624738447E+00 -.32943895534223E+00 0.73430871909547E+00
 o  -.19471748115452E+01 0.21772837003702E+01 -.33367331107001E+00
 h  -.11879579018941E+01 0.14602794768737E+01 -.38765722211971E+00
 h  -.15637784229443E+01 0.29553164194224E+01 -.62231134746336E+00
 o  0.15379627176231E+01 0.19505442062842E+01 -.67409696368765E+00
 h  0.15842059211651E+01 0.15582871222487E+01 0.18762642383215E+00
 o  0.10953939510948E+01 -.34639317940011E+01 -.40727706812099E+00
 h  0.20319882041941E+00 -.37883994884262E+01 -.42558188051467E+00
 h  0.10148329097878E+01 -.26691684094131E+01 -.89386133013673E+00
 h  0.21973155987187E+01 0.14856850616109E+01 -.12233614795015E+01
    10

 cl -.37844781641195E+00 -.32591888059725E+00 0.72218858813761E+00
 o  -.19266460589211E+01 0.21655561882399E+01 -.32421567558507E+00
 h  -.11466943989461E+01 0.15199972719533E+01 -.28612868109851E+00
 h  -.16005695591811E+01 0.29774462141813E+01 -.65368507324906E+00
 o  0.15193174062569E+01 0.19368466081252E+01 -.67289081196046E+00
 h  0.16412896857632E+01 0.16110452421204E+01 0.22450914972510E+00
 o  0.11034205925522E+01 -.34577134825134E+01 -.40425794231361E+00
 h  0.14380894713462E+00 -.37273736432732E+01 -.37085876363087E+00
 h  0.98563187124786E+00 -.26705455611405E+01 -.87355134752349E+00
 h  0.21880710107430E+01 0.14692585762085E+01 -.11973179678318E+01
    10

 cl -.38157057912644E+00 -.32249440792775E+00 0.70984814268302E+00
 o  -.19060001675975E+01 0.21495575461323E+01 -.31389987191906E+00
 h  -.11439030106019E+01 0.16021607355154E+01 -.17368409112089E+00
 h  -.16039712153474E+01 0.30407011810832E+01 -.70473983360602E+00
 o  0.15021839961849E+01 0.19246247980503E+01 -.67300128330205E+00
 h  0.16807303956027E+01 0.16424364450583E+01 0.26241252045797E+00
 o  0.11081246180017E+01 -.34578631163676E+01 -.39956257981414E+00
 h  0.13869787205746E+00 -.36541087624950E+01 -.30457423538376E+00
 h  0.95386361708795E+00 -.25763939028807E+01 -.88391030575860E+00
 h  0.21638496304598E+01 0.14517491247301E+01 -.11561262263914E+01
    10

 cl -.38431180221657E+00 -.31927524090489E+00 0.69737912322713E+00
 o  -.18881587857189E+01 0.21413779862047E+01 -.30648290040972E+00
 h  -.10919877770438E+01 0.16457746289496E+01 -.50495443541832E-01