 operating system is UNIX !

 ridft (missouri) : TURBOMOLE V7.2 ( 21454 ) 4 Oct 2017 at 12:48:15
 Copyright (C) 2017 TURBOMOLE GmbH, Karlsruhe


    2018-02-09 11:56:24.404 



                                  r i d f t

                        DFT program with RI approximation 
                                for coulomb part 




                                                 
                                 References:     
                                                 
          TURBOMOLE:                             
              R. Ahlrichs, M. Baer, M. Haeser, H. Horn, and
              C. Koelmel
              Electronic structure calculations on workstation
              computers: the program system TURBOMOLE
              Chem. Phys. Lett. 162: 165 (1989)
          Density Functional:                              
              O. Treutler and R. Ahlrichs                      
              Efficient Molecular Numerical Integration Schemes
              J. Chem. Phys. 102: 346 (1995)                   
          Parallel Version:                                
              Performance of parallel TURBOMOLE for Density    
              Functional Calculations                          
              M. v. Arnim and R. Ahlrichs                      
              J. Comp. Chem. 19: 1746 (1998)                   
          RI-J Method:                                     
              Auxiliary Basis Sets to approximate Coulomb      
              Potentials                                       
              Chem. Phys. Lett. 240: 283 (1995)                
              K. Eichkorn, O. Treutler, H. Oehm, M. Haeser     
              and R. Ahlrichs                                  
              Chem. Phys. Lett. 242: 652 (1995)                
                                                           
              Auxiliary Basis Sets for Main Row Atoms and their
              Use to approximate Coulomb Potentials            
              K. Eichkorn, F. Weigend, O. Treutler and         
              R. Ahlrichs                                      
              Theo. Chem. Acc. 97: 119 (1997)                   
                                                           
              Accurate Coulomb-fitting basis sets for H to Rn 
              F. Weigend                                        
              Phys. Chem. Chem. Phys. 8: 1057 (2006)            
                                                           
          Multipole accelerated RI-J (MARI-J):             
              Fast evaluation of the Coulomb potential for     
              electron densities using multipole accelerated   
              resolution of identity approximation             
              M. Sierka, A. Hogekamp and R. Ahlrichs           
              J. Chem. Phys. 118: 9136 (2003)                  
          RI-JK Method:                                     
              A fully direct RI-HF algorithm: Implementation,
              optimised auxiliary basis sets, demonstration of
              accuracy and efficiency                         
              F. Weigend                                      
              Phys. Chem. Chem. Phys. 4: 4285 (2002)           
          Two-component HF and DFT with spin-orbit coupling:  
              Self-consistent treatment of spin-orbit         
              interactions with efficient Hartree-Fock and    
              density functional methods                      
              M. K. Armbruster, F. Weigend, C. van Wüllen and 
              W. Klopper                                      
              Phys. Chem. Chem. Phys. 10: 1748 (2008)         
          Relativistic all-electron 2c calculations           
              An efficient implementation of two-component    
              relativistic exact-decoupling methods for large 
              molecules                                       
              D. Peng, N. Middendorf, F. Weigend, M. Reiher   
              J. Chem. Phys. 138, 184105 (2013)               
                                         




              +--------------------------------------------------+
              |      general information about current run       |
              +--------------------------------------------------+

 
 PBE0 hybrid functional
 exchange:    3/4 (LDA+PBE) + 1/4 HF
 correlation: LDA (PW) + PBE
 A Hybrid-DFT calculation using the RI-J approximation will be carried out.
 Allocatable memory for RI due to $ricore (MB):                  5000


              +--------------------------------------------------+
              | Atomic coordinate, charge and isotop information |
              +--------------------------------------------------+

                    atomic coordinates            atom    charge  isotop
        -12.73855430    6.96091325   -0.00558287    o      8.000     0
        -10.81265134    5.62151899   -0.00136813    c      6.000     0
         -8.29714117    6.76542737   -0.00624608    c      6.000     0
         -6.10759042    5.27657515   -0.00563013    c      6.000     0
         -6.19994161    2.60742242    0.00554558    c      6.000     0
         -8.60114998    1.44107883    0.00531694    c      6.000     0
        -10.78594869    2.86565947    0.00575283    c      6.000     0
         -3.00721201    6.28990874   -0.01487222    s     16.000     0
         -2.05099122    3.10114916   -0.00313986    c      6.000     0
         -3.87479610    1.42772438    0.00140213    n      7.000     0
          0.61547970    2.59921735   -0.00534349    c      6.000     0
          1.57385156   -0.61159153    0.00655831    s     16.000     0
          2.36890976    4.34449590   -0.01228517    n      7.000     0
          4.77401803    3.38245712   -0.00569212    c      6.000     0
          4.81445901    0.45741097    0.00017613    c      6.000     0
          5.84398571   -0.22406726    1.69204333    h      1.000     0
          5.83973042   -0.23062675   -1.67981916    h      1.000     0
          6.73622271    4.59226524   -0.01037536    o      8.000     0
         -8.23222966    8.83112898   -0.01255817    h      1.000     0
        -13.97414341    1.25213510    0.01162452    br    35.000     0
         -8.69056929   -0.62592368    0.01134322    h      1.000     0
 
       center of nuclear mass  :   -5.47641629    2.94165032    0.00042051
       center of nuclear charge:   -5.16606505    2.98116016    0.00010701

              +--------------------------------------------------+
              |               basis set information              |
              +--------------------------------------------------+

              we will work with the 1s 3p 5d 7f 9g ... basis set
              ...i.e. with spherical basis functions...

   type   atoms  prim   cont   basis
   ---------------------------------------------------------------------------
    o        2     24     14   def2-SV(P)   [3s2p1d|7s4p1d]
    c       10     24     14   def2-SV(P)   [3s2p1d|7s4p1d]
    s        2     36     18   def2-SV(P)   [4s3p1d|10s7p1d]
    n        2     24     14   def2-SV(P)   [3s2p1d|7s4p1d]
    h        4      4      2   def2-SV(P)   [2s|4s]
    br       1     74     32   def2-SV(P)   [5s4p3d|14s10p6d]
   ---------------------------------------------------------------------------
   total:   21    498    272
   ---------------------------------------------------------------------------

   total number of primitive shells          :   88
   total number of contracted shells         :  120
   total number of cartesian basis functions :  291
   total number of SCF-basis functions       :  272


 integral neglect threshold       :  0.11E-10
 integral storage threshold THIZE :  0.10E-04
 integral storage threshold THIME :         5

 RI-J AUXILIARY BASIS SET information:

              we will work with the 1s 3p 5d 7f 9g ... basis set
              ...i.e. with spherical basis functions...

   type   atoms  prim   cont   basis
   ---------------------------------------------------------------------------
    o        2     70     49   def2-SV(P)   [6s4p3d1f1g|12s5p4d2f1g]
    c       10     70     49   def2-SV(P)   [6s4p3d1f1g|12s5p4d2f1g]
    s        2     77     51   def2-SV(P)   [8s4p3d1f1g|14s5p5d2f1g]
    n        2     70     49   def2-SV(P)   [6s4p3d1f1g|12s5p4d2f1g]
    h        4     16     11   def2-SV(P)   [3s1p1d|5s2p1d]
    br       1     89     58   def2-SV(P)   [8s4p3d2f1g|19s5p5d3f1g]
   ---------------------------------------------------------------------------
   total:   21   1287    890
   ---------------------------------------------------------------------------

   total number of primitive shells          :  140
   total number of contracted shells         :  282
   total number of cartesian basis functions : 1101
   total number of SCF-basis functions       :  890


 symmetry group of the molecule :   c1 

 the group has the following generators :
   c1(z)

    1 symmetry operations found

 there are 1 real representations :   a   

 maximum number of shells which are related by symmetry :  1


    mo occupation :
   irrep   mo's   occupied
    a      272       81
 
 number of basis functions   :                    272
 number of occupied orbitals :                     81
 
  
           ------------------
           density functional
           ------------------
 PBE0 hybrid functional
 exchange:    3/4 (LDA+PBE) + 1/4 HF
 correlation: LDA (PW) + PBE

 iterations will be done with small grid
  
 spherical integration : Lebedev's spherical grid
 spherical gridsize    :                     5
    i.e. gridpoints    :                   590
 value for diffuse not defined
 radial integration    : Chebyshev 2nd kind (scaling 3)
 radial gridsize       :                     8
 integration cells     :                    21
 partition function    : becke
 partition sharpness   :                     3
  

 biggest AO integral is expected to be    21.668154127
  
           ------------------------
               RI-J - INFORMATION
           ------------------------
 Contributions to RI integral batches: 
  neglected integral batches:                  2342
  direct contribution:                            0
  memory contribution:                  4918
 Memory core needed for (P|Q) and Cholesky      7 MByte
 Memory core minimum needed except of (P|Q)     1 MByte
 Total minimum memory core needed (sum)         7 MByte
  
 ****************************************
 Memory allocated for RI-J   243 MByte
 ****************************************
                                            

          ------------------------
          nuclear repulsion energy  :   1647.10098843    
          ------------------------


         -----------------
         -S,T+V- integrals
         -----------------

 1e-integrals will be neglected if expon. factor < 0.114844E-11
 
   Difference densities algorithm switched on.
   The maximal number of linear combinations of
   difference densities is                    20 .

 DIIS switched on: error vector is FDS-SDF
 Max. Iterations for DIIS is     :   4
 DIIS matrix (see manual) 
    Scaling factor of diagonals  :  1.200
    threshold for scaling factor :  0.000

 scf convergence criterion : increment of total energy < .1000000D-06
                  and increment of one-electron energy < .1000000D-03

  MOs are in ASCII format !


 automatic virtual orbital shift switched on 
      shift if e(lumo)-e(homo) < 0.10000000    


 reading orbital data $scfmo  from file mos
 orbital characterization : scfconv=7

 dump of DSCF restart information has been disabled !


 Starting SCF iterations

          Overall gridpoints after grid construction =        122144

 ITERATION  ENERGY          1e-ENERGY        2e-ENERGY     NORM[dD(SAO)]  TOL
   1  -4011.7272356504    -8854.6616830     3195.8334589    0.000D+00 0.115D-10
                            Exc = -172.717177173     Coul =  3424.20671231    
                            exK = -55.6560762563    
                              N = 161.99999539    
                            current damping = 0.700
 
          max. resid. norm for Fia-block=  3.371D-03 for orbital      1a         
          max. resid. fock norm         =  7.045D-03 for orbital    196a         

 ITERATION  ENERGY          1e-ENERGY        2e-ENERGY     NORM[dD(SAO)]  TOL
   2  -4011.7272779432    -8854.6430985     3195.8148322    0.212D-01 0.726D-11
                            Exc = -172.715979692      Eck =  3368.53081185    
                              N = 161.99999537    
                            current damping = 0.650
 
          Norm of current diis error: 0.67482E-02
          max. resid. norm for Fia-block=  1.388D-03 for orbital      1a         
          max. resid. fock norm         =  2.879D-03 for orbital    196a         

 ITERATION  ENERGY          1e-ENERGY        2e-ENERGY     NORM[dD(SAO)]  TOL
   3  -4011.7272858534    -8854.6404281     3195.8121538    0.516D-02 0.557D-11
                            Exc = -172.716367329      Eck =  3368.52852110    
                              N = 161.99999536    
                            current damping = 0.500
 
          Norm of current diis error: 0.41367E-02
          max. resid. norm for Fia-block=  5.468D-04 for orbital      1a         
          max. resid. fock norm         =  1.154D-03 for orbital    196a         

 ITERATION  ENERGY          1e-ENERGY        2e-ENERGY     NORM[dD(SAO)]  TOL
   4  -4011.7272886172    -8854.6438682     3195.8155911    0.211D-02 0.518D-11
                            Exc = -172.716022846      Eck =  3368.53161399    
                              N = 161.99999536    
                            current damping = 0.550
 
          Norm of current diis error: 0.18908E-02
          max. resid. norm for Fia-block=  1.823D-04 for orbital      1a         
          max. resid. fock norm         =  3.930D-04 for orbital    196a         

 ITERATION  ENERGY          1e-ENERGY        2e-ENERGY     NORM[dD(SAO)]  TOL
   5  -4011.7272892662    -8854.6400408     3195.8117631    0.956D-03 0.494D-11
                            Exc = -172.716080890      Eck =  3368.52784398    
                              N = 161.99999536    
                            current damping = 0.600
 
          Norm of current diis error: 0.61185E-03
          max. resid. norm for Fia-block=  6.468D-05 for orbital      1a         
          max. resid. fock norm         =  1.383D-04 for orbital    196a         
          mo-orthogonalization: Cholesky decomposition

 ENERGY CONVERGED !

          Overall gridpoints after grid construction =        372396

 ITERATION  ENERGY          1e-ENERGY        2e-ENERGY     NORM[dD(SAO)]  TOL
   6  -4011.7272936847    -8854.6401488     3195.8118667    0.325D-03 0.479D-11
                            Exc = -172.716070713      Eck =  3368.52793741    
                              N = 161.99999865    
                            current damping = 0.650
 
          Norm of current diis error: 0.22389E-03
          max. resid. norm for Fia-block=  2.425D-05 for orbital      1a         
          max. resid. fock norm         =  5.321D-05 for orbital    196a         

 End of SCF iterations

   convergence criteria satisfied after     6 iterations


                  ------------------------------------------ 
                 |  total energy      =  -4011.72729368472  |
                  ------------------------------------------ 
                 :  kinetic energy    =   4002.27337617814  :
                 :  potential energy  =  -8014.00066986285  :
                 :  virial theorem    =      1.99764342967  :
                 :  wavefunction norm =      1.00000000000  :
                  .......................................... 


 <geterg> : there is no data group $energy 


 orbitals $scfmo  will be written to file mos

    irrep                 77a         78a         79a         80a         81a   
 eigenvalues H         -0.17305    -0.16399    -0.12830    -0.11980    -0.07700
            eV          -4.7089     -4.4625     -3.4912     -3.2598     -2.0952
 occupation              2.0000      2.0000      2.0000      2.0000      2.0000 

    irrep                 82a         83a         84a         85a         86a   
 eigenvalues H          0.01610     0.10612     0.11717     0.12708     0.13186
            eV           0.4381      2.8878      3.1883      3.4579      3.5882
 
 
 
 
 ==============================================================================
                           electrostatic moments
 ==============================================================================

 reference point for electrostatic moments:    0.00000   0.00000   0.00000

 
              nuc           elec       ->  total
 ------------------------------------------------------------------------------
                          charge      
 ------------------------------------------------------------------------------
         161.000000    -162.000000      -1.000000
 
 ------------------------------------------------------------------------------
                       dipole moment  
 ------------------------------------------------------------------------------
   x    -831.736472     837.515970       5.779497
   y     479.966786    -485.022163      -5.055377
   z       0.017228      -0.011954       0.005274
 
   | dipole moment | =     7.6785 a.u. =    19.5168 debye 
 
 ------------------------------------------------------------------------------
                     quadrupole moment
 ------------------------------------------------------------------------------
  xx   12050.339815  -12242.088730    -191.748915
  yy    2377.039772   -2501.064748    -124.024976
  zz       5.697640     -98.554993     -92.857353
  xy   -2599.102070    2625.248394      26.146323
  xz      -5.339316       5.362101       0.022785
  yz      -2.715925       2.760191       0.044267
 
     1/3  trace=    -136.210414
     anisotropy=      98.588260
 
 ==============================================================================
 


    ------------------------------------------------------------------------
         total  cpu-time :  1 minutes and 22 seconds
         total wall-time :  1 minutes and 22 seconds
    ------------------------------------------------------------------------

   ****  ridft : all done  ****


    2018-02-09 11:57:46.486 


 egrad (missouri) : TURBOMOLE V7.2 ( 21454 ) 4 Oct 2017 at 12:24:43
 Copyright (C) 2017 TURBOMOLE GmbH, Karlsruhe


    2018-02-09 11:57:46.505 




                               e g r a d

                             TURBOMOLE GmbH


             integral direct evaluation of excited state
                     and polarizability gradients
                 and first-order nonadiabatic couplings



          references (see also programs escf, dscf and ridft) 

          review 
          F. Furche and D. Rappoport,  
          "Density functional methods for excited states: 
          equilibrium structure and electronic spectra",
          ch. III of "Computational Photochemistry", ed. by 
          M. Olivucci, vol. 16 of "Theoretical and Computational 
          Chemistry", Elsevier, Amsterdam, 2005.

          nonorthonormal Krylov space methods 
          F. Furche, B. T. Krull, B. D. Nguyen, J. Kwon, 
          J. Chem. Phys. 144 (2016), 174105.

          RI-J method 
          D. Rappoport and F. Furche, 
          J. Chem. Phys. 122 (2005), 064105.

          Lagrangian method, implementation, benchmarks 
          F. Furche and R. Ahlrichs,
          J. Chem. Phys. 117 (2002), 7433;
          J. Chem. Phys. 121 (2004), 12772 (E).

          Polarizability derivatives, Raman intensities 
          D. Rappoport and F. Furche, 
          J. Chem. Phys. 126 (2007), 201104.

          First-order nonadiabatic couplings 
          R. Send and F. Furche, 
          J. Chem. Phys. 132 (2010), 044107.
                                     




              +--------------------------------------------------+
              | Atomic coordinate, charge and isotop information |
              +--------------------------------------------------+

                    atomic coordinates            atom    charge  isotop
        -12.73855430    6.96091325   -0.00558287    o      8.000     0
        -10.81265134    5.62151899   -0.00136813    c      6.000     0
         -8.29714117    6.76542737   -0.00624608    c      6.000     0
         -6.10759042    5.27657515   -0.00563013    c      6.000     0
         -6.19994161    2.60742242    0.00554558    c      6.000     0
         -8.60114998    1.44107883    0.00531694    c      6.000     0
        -10.78594869    2.86565947    0.00575283    c      6.000     0
         -3.00721201    6.28990874   -0.01487222    s     16.000     0
         -2.05099122    3.10114916   -0.00313986    c      6.000     0
         -3.87479610    1.42772438    0.00140213    n      7.000     0
          0.61547970    2.59921735   -0.00534349    c      6.000     0
          1.57385156   -0.61159153    0.00655831    s     16.000     0
          2.36890976    4.34449590   -0.01228517    n      7.000     0
          4.77401803    3.38245712   -0.00569212    c      6.000     0
          4.81445901    0.45741097    0.00017613    c      6.000     0
          5.84398571   -0.22406726    1.69204333    h      1.000     0
          5.83973042   -0.23062675   -1.67981916    h      1.000     0
          6.73622271    4.59226524   -0.01037536    o      8.000     0
         -8.23222966    8.83112898   -0.01255817    h      1.000     0
        -13.97414341    1.25213510    0.01162452    br    35.000     0
         -8.69056929   -0.62592368    0.01134322    h      1.000     0
 
       center of nuclear mass  :   -5.47641629    2.94165032    0.00042051
       center of nuclear charge:   -5.16606505    2.98116016    0.00010701

              +--------------------------------------------------+
              |               basis set information              |
              +--------------------------------------------------+

              we will work with the 1s 3p 5d 7f 9g ... basis set
              ...i.e. with spherical basis functions...

   type   atoms  prim   cont   basis
   ---------------------------------------------------------------------------
    o        2     24     14   def2-SV(P)   [3s2p1d|7s4p1d]
    c       10     24     14   def2-SV(P)   [3s2p1d|7s4p1d]
    s        2     36     18   def2-SV(P)   [4s3p1d|10s7p1d]
    n        2     24     14   def2-SV(P)   [3s2p1d|7s4p1d]
    h        4      4      2   def2-SV(P)   [2s|4s]
    br       1     74     32   def2-SV(P)   [5s4p3d|14s10p6d]
   ---------------------------------------------------------------------------
   total:   21    498    272
   ---------------------------------------------------------------------------

   total number of primitive shells          :   88
   total number of contracted shells         :  120
   total number of cartesian basis functions :  291
   total number of SCF-basis functions       :  272


 residuum convergence criterium   :  0.10E-04


 integral neglect threshold       :  0.11E-10
 integral storage threshold THIZE :  0.10E-04
 integral storage threshold THIME :         5

 
             FOUND RI-J FLAG !
 
  
 AUXILIARY BASIS SET information:

              we will work with the 1s 3p 5d 7f 9g ... basis set
              ...i.e. with spherical basis functions...

   type   atoms  prim   cont   basis
   ---------------------------------------------------------------------------
    o        2     70     49   def2-SV(P)   [6s4p3d1f1g|12s5p4d2f1g]
    c       10     70     49   def2-SV(P)   [6s4p3d1f1g|12s5p4d2f1g]
    s        2     77     51   def2-SV(P)   [8s4p3d1f1g|14s5p5d2f1g]
    n        2     70     49   def2-SV(P)   [6s4p3d1f1g|12s5p4d2f1g]
    h        4     16     11   def2-SV(P)   [3s1p1d|5s2p1d]
    br       1     89     58   def2-SV(P)   [8s4p3d2f1g|19s5p5d3f1g]
   ---------------------------------------------------------------------------
   total:   21   1287    890
   ---------------------------------------------------------------------------

   total number of primitive shells          :  140
   total number of contracted shells         :  282
   total number of cartesian basis functions : 1101
   total number of SCF-basis functions       :  890

 RPA SINGLET-EXCITATION-CALCULATION 
 
             FOUND DFT-FLAG !
 

 symmetry group of the molecule :   c1 

 the group has the following generators :
   c1(z)

    1 symmetry operations found

 there are 1 real representations :   a   

 maximum number of shells which are related by symmetry :  1

 IRREP of excited state :   a   
 

 determining totally symmetric integral contributions 
    - equivalent to irreducible tensor elements - 
 which can be formed within each triple of representations :

             representation triple      contributions

              a     a     a               1

    mo occupation :
   irrep   mo's   occupied
    a      272       81
 
 number of basis functions   :                    272
 number of occupied orbitals :                     81
 
  
           ------------------
           density functional
           ------------------
 PBE0 hybrid functional
 exchange:    3/4 (LDA+PBE) + 1/4 HF
 correlation: LDA (PW) + PBE

 iterations will be done with small grid
  
 spherical integration : Lebedev's spherical grid
 spherical gridsize    :                     5
    i.e. gridpoints    :                   590
 value for diffuse not defined
 radial integration    : Chebyshev 2nd kind (scaling 3)
 radial gridsize       :                     8
 integration cells     :                    21
 partition function    : becke
 partition sharpness   :                     3
  
  
           ----------------------
               RI - INFORMATION
           ----------------------

 biggest AO integral is expected to be    21.668154127

 Threshold for integral neglect (rithr2):   0.11E-10
 Threshold for integral neglect (rithr1):   0.11E-10

 Contributions to RI integral batches: 
  neglected integral batches:                  2187
  direct contribution:                            0
  memory contribution:                  5073
 Core memory available (ricore)            5000 MiB
 Core memory needed for (P|Q) and Cholesky 7 MiB
 Core memory used for integrals            244 MiB
  
 ****************************************
 Memory allocated for RIDFT 250 MiB
 ****************************************
                                            
  MOs are in ASCII format !


 reading orbital data $scfmo  from file mos
 orbital characterization : scfconv=7
 preparing numerical integration ....
          Overall gridpoints after grid construction =        122144

 Calculating ground state density on molecular grid

 Integral of ground state density: N =   161.9999953791953    



 number of non-frozen orbitals          :   272
 number of non-frozen occupied orbitals :    81



                        -------------------
                         excitation vector 
                        -------------------


 dimension of super-tensorspace: 2

          IRREP   tensor space dimension   number of roots

           a             15471                   1

 maximum number of Davidson iterations set to   50


 machine precision: 2.22D-16


 logfile sing_a    will be constructed


                       Nonorthonormal Krylov Space Iteration


 total number of roots to be determined:   1


 maximum core memory set to   500 MB,
 corresponding to      379 vectors in CAO basis


 maximum number of simultaneously treated vectors (including degeneracy):        2


 Iteration IRREP Converged      Max. Euclidean
                 roots          residual norm

    1       a        0        3.034282105029843D-02
 
    2       a        0        1.571013940247539D-02
 
    3       a        0        4.342898627915932D-03
 
    4       a        0        1.088055794004888D-01
 
    5       a        0        3.933047616790469D-02
 
    6       a        0        1.657218729213102D-02
 
    7       a        0        6.197291483790909D-03
 
    8       a        0        2.728392542263894D-03
 
    9       a        0        1.583437523233037D-03
 
   10       a        0        6.987173211934869D-04
 
   11       a        0        3.171281357534681D-04
 
   12       a        0        1.234568297274336D-04
 
   13       a        0        5.003147782045411D-05
 
   14       a        0        1.994769180480614D-05
 
   15       a        1        8.592431363851430D-06
 

 converged!


 Switching to fine grid

 preparing numerical integration ....
          Overall gridpoints after grid construction =        372396

 Calculating ground state density on molecular grid

 Integral of ground state density: N =   161.9999986541018    



 Iteration IRREP Converged      Max. Euclidean
                 roots          residual norm

   16       a        0        1.125214779598738D-05
 

 NOTE: Residual norms are larger than 1.00D-05 due to mgrid option!

 Eigenpairs written on logfile sing_a   



 IRREP   Vector     Eigenvalue           Euclidean residual norm

  a         1    8.804072926554161D-02    1.125214779598738D-05
 




                    Selection rules for point group c1  


 Subduction with respect to c1  :

    Polar vector representation: a                           

    Axial vector representation: a                           

    Symmetric second rank tensor representation: a                           




                            Ground state


 Total energy:                           -4011.727293685000    

 Charge:

               elec          nuc         total

          -162.000000   161.000000    -1.000000


 Electric dipole moment:

               elec          nuc         total   

    x      837.515970  -831.736472     5.779497    Norm:              7.678506
    y     -485.022163   479.966786    -5.055377
    z       -0.011954     0.017228     0.005274    Norm / debye:     19.516963


 Electric quadrupole moment:

               elec          nuc         total   

   xx   -12242.088730 12050.339815  -191.748915
   yy    -2501.064748  2377.039772  -124.024976    1/3*trace:      -136.210414
   zz      -98.554993     5.697640   -92.857353
   xy     2625.248394 -2599.102070    26.146323
   xz        5.362101    -5.339316     0.022785    Anisotropy:       98.588260
   yz        2.760191    -2.715925     0.044267



 ==============================================================================

                              I R R E P   a   

 ==============================================================================


 Excitation is electric dipole allowed

 Excitation is magnetic dipole allowed

 Excitation is electric quadrupole allowed




                         1 singlet a excitation


 Total energy:                           -4011.639252955734    

 Excitation energy:                      0.8804072926554161E-01

 Excitation energy / eV:                  2.395711163140366    

 Excitation energy / nm:                  517.5258433238934    

 Excitation energy / cm^(-1):             19322.70654211343    


 Oscillator strength:

    velocity representation:             0.4380744769883578    

    length representation:               0.4978578699956814    

    mixed representation:                0.4670094616101800    


 Rotatory strength:

    velocity representation:             0.1076740088930326E-04

    velocity rep. / 10^(-40)erg*cm^3:    0.6956259576259299    

    length representation:               0.1251733962675290E-04

    length rep. / 10^(-40)erg*cm^3:      0.8086804284810488    


 Dominant contributions:

      occ. orbital   energy / eV   virt. orbital     energy / eV   |coeff.|^2*100
       81 a              -2.10          82 a               0.44       92.1
 

 Change of electron number:

            -0.000000


 Electric transition dipole moment (velocity rep.):

    x       -2.711826        Norm:                  2.731982
    y        0.331249
    z        0.000593        Norm / debye:          6.944057


 Electric transition dipole moment (length rep.):

    x       -2.890194        Norm:                  2.912437
    y        0.359259
    z        0.001186        Norm / debye:          7.402732


 Magnetic transition dipole moment / i:

    x       -0.000003        Norm:                  0.001856
    y        0.000002
    z        0.001856        Norm / Bohr mag.:      0.508749


 Electric quadrupole transition moment:

   xx       23.711494
   yy        2.579024        1/3*trace:             8.721361
   zz       -0.126435
   xy      -11.177394
   xz       -0.006874        Anisotropy:           29.763677
   yz        0.004719
 

 Excited state no.    1 chosen for optimization


                       ----------------------
                        CPKS right-hand side 
                       ----------------------


          IRREP   tensor space dimension   number of roots

           a             15471                   1

                          ----------------
                           CPKS equations 
                          ----------------


 logfile dipl_a    will be constructed

 Switching to coarse grid

 preparing numerical integration ....
          Overall gridpoints after grid construction =        122144


                       Nonorthonormal Krylov Space Iteration


 total number of roots to be determined:   1


 maximum core memory set to   500 MB,
 corresponding to      754 vectors in CAO basis


 maximum number of simultaneously treated vectors (including degeneracy):        1


 Iteration IRREP Converged      Max. Euclidean
                 roots          residual norm

    1       a        0        1.055927951133178D-01
 
    2       a        0        4.889083627561751D-02
 
    3       a        0        2.020748823984088D-02
 
    4       a        0        8.028748411953356D-03
 
    5       a        0        3.373389720309254D-03
 
    6       a        0        9.568093944929605D-04
 
    7       a        0        3.899554147562704D-04
 
    8       a        0        1.408132365739045D-04
 
    9       a        0        5.926382837527370D-05
 
   10       a        0        1.632935939387147D-05
 
   11       a        1        6.885737175667088D-06
 

 converged!


 Switching to fine grid

 preparing numerical integration ....
          Overall gridpoints after grid construction =        372396

 Iteration IRREP Converged      Max. Euclidean
                 roots          residual norm

   12       a        0        1.586097179419784D-05
 

 NOTE: Residual norms are larger than 1.00D-05 due to mgrid option!

 Eigenpairs written on logfile dipl_a   



 IRREP   Vector     Frequency            Euclidean residual norm

  a         1    0.000000000000000D+00    1.586097179419784D-05
 

                          -------------------
                           relaxed densities 
                          -------------------


    ----------------------------------------
     S+T+V CONTRIBUTIONS TO ENERGY GRADIENT 
    ----------------------------------------

 1e-integral 1st. derivatives will be neglected if expon. factor < 0.100000E-10


    -----------------------------------------------
     TWO ELECTRON CONTRIBUTIONS TO ENERGY GRADIENT 
    -----------------------------------------------

 setting up bound for integral derivative estimation

 increment for numerical differentiation : 0.00050000

 biggest AO integral is expected to be    21.668154127
 biggest cartesian 1st derivative AO integral is expected to be    83.347447328

 biggest 1-particle AO density matrix element is expected to be    3.2085779510

 core memory to be involved in 2e-gradient :
   symmetry shell pair data              :         1
   two particle density+dens. estimates  :      8556
   derivative integrals                  :      8498
   derivative integral bound             :     21780
   totally                               :     30276


 setting up bound for integral derivative estimation

 increment for numerical differentiation : 0.00050000

 biggest AO integral is expected to be    21.668154127
 biggest cartesian 1st derivative AO integral is expected to be    83.347447328

 2e-integral 1st. derivatives will be neglected if expon. factor < 0.100000E-06
 outer boundary for 2e-integral derivative neglection is 0.161891E-08

 Integrated ground state density     :   161.9999986541013    


          ------------------------------------------------
           cartesian gradient of the energy (hartree/bohr)
          ------------------------------------------------

  ATOM      1 o           2 c           3 c           4 c           5 c 
dE/dx -0.2145908D-02  0.1711695D-02  0.1213371D-02 -0.1951753D-04  0.4266507D-02
dE/dy  0.1758187D-02 -0.1042703D-02 -0.1258501D-03  0.2510197D-02 -0.2198968D-02
dE/dz -0.7468001D-04  0.7918853D-04  0.6650785D-04 -0.2548392D-03  0.6955976D-03

  ATOM      6 c           7 c           8 s           9 c          10 n 
dE/dx -0.3653226D-02  0.1780898D-02 -0.1243610D-02  0.2249525D-02 -0.2849843D-02
dE/dy  0.2884411D-02 -0.3580594D-02  0.6586087D-03 -0.1118727D-02  0.1138733D-03
dE/dz -0.4659973D-03  0.1134993D-03 -0.1420890D-03  0.3265020D-03 -0.3584530D-03

  ATOM     11 c          12 s          13 n          14 c          15 c 
dE/dx -0.2399640D-02 -0.4223790D-03 -0.7325517D-03 -0.1655165D-02 -0.1508414D-02
dE/dy -0.2150838D-03 -0.3164871D-03  0.1103763D-02 -0.3350458D-02  0.1475856D-02
dE/dz -0.9541278D-04  0.9014097D-04 -0.1890468D-03  0.5048682D-03 -0.2831478D-02

  ATOM     16 h          17 h          18 o          19 h          20 br
dE/dx  0.1351120D-02 -0.1095235D-03  0.3648738D-02  0.5590073D-04  0.2989807D-03
dE/dy -0.7602505D-03  0.2362660D-03  0.2393421D-02  0.4292359D-03  0.2556338D-03
dE/dz  0.2011559D-02  0.5693313D-03 -0.1340984D-03  0.1121537D-04  0.8494621D-05

  ATOM     21 h 
dE/dx  0.1481040D-03
dE/dy -0.1112698D-02
dE/dz  0.6918584D-04
 
 resulting FORCE  (fx,fy,fz) = (-.149D-04,-.237D-05,-.394D-08)
 resulting MOMENT (mx,my,mz) = (0.253D-04,-.668D-05,-.176D-04)


 **********************************************************************
  |maximum component of gradient| : 0.42665069E-02  (atom  5 c )       
   gradient norm                  : 0.12639904E-01
 **********************************************************************

 exx =       0.001678 eyy =       0.017455 ezz =       0.002453
 eyz =      -0.001751 exz =       0.002492 exy =       0.010635


 <getgrd> : data group $grad  is missing 

   ***  cartesian gradients written onto <gradient>  ***
 
 
 
 ==============================================================================
                           electrostatic moments
 ==============================================================================

 reference point for electrostatic moments:    0.00000   0.00000   0.00000

 
              nuc           gs,e       ->  gs,tot          excit     ->  total
 ------------------------------------------------------------------------------
                          charge      
 ------------------------------------------------------------------------------
         161.000000    -162.000000      -1.000000      -0.000000      -1.000000
 
 ------------------------------------------------------------------------------
                       dipole moment  
 ------------------------------------------------------------------------------
   x    -831.736472     837.515970       5.779497      -0.921106       4.858391
   y     479.966786    -485.022163      -5.055377       0.851047      -4.204330
   z       0.017228      -0.011954       0.005274      -0.001898       0.003376
 
   | dipole moment | =     6.4250 a.u. =    16.3307 debye 
 
 ------------------------------------------------------------------------------
                     quadrupole moment
 ------------------------------------------------------------------------------
  xx   12050.339815  -12242.088730    -191.748915       0.971065    -190.777849
  yy    2377.039772   -2501.064748    -124.024976       7.366657    -116.658319
  zz       5.697640     -98.554993     -92.857353       0.108023     -92.749330
  xy   -2599.102070    2625.248394      26.146323      -8.500444      17.645879
  xz      -5.339316       5.362101       0.022785       0.015235       0.038021
  yz      -2.715925       2.760191       0.044267      -0.009950       0.034317
 
     1/3  trace=    -133.395166
     anisotropy=      93.656856
 
 ==============================================================================
 


    ------------------------------------------------------------------------
         total  cpu-time :  9 minutes and 42 seconds
         total wall-time :  9 minutes and 42 seconds
    ------------------------------------------------------------------------

   ****  egrad : all done  ****


    2018-02-09 12:07:28.764 

$dipole from egrad
  x     4.85839125860730    y    -4.20433001097200    z     0.00337595887903    a.u.
   | dipole | =   16.3307936309  debye
/work/bdnguye2/luc_project/5_brluc/ex_geo_opt/save/numforce/KraftWerk/p002
