 operating system is UNIX !

 ridft (missouri) : TURBOMOLE V7.2 ( 21454 ) 4 Oct 2017 at 12:48:15
 Copyright (C) 2017 TURBOMOLE GmbH, Karlsruhe


    2018-02-09 13:08:19.300 



                                  r i d f t

                        DFT program with RI approximation 
                                for coulomb part 




                                                 
                                 References:     
                                                 
          TURBOMOLE:                             
              R. Ahlrichs, M. Baer, M. Haeser, H. Horn, and
              C. Koelmel
              Electronic structure calculations on workstation
              computers: the program system TURBOMOLE
              Chem. Phys. Lett. 162: 165 (1989)
          Density Functional:                              
              O. Treutler and R. Ahlrichs                      
              Efficient Molecular Numerical Integration Schemes
              J. Chem. Phys. 102: 346 (1995)                   
          Parallel Version:                                
              Performance of parallel TURBOMOLE for Density    
              Functional Calculations                          
              M. v. Arnim and R. Ahlrichs                      
              J. Comp. Chem. 19: 1746 (1998)                   
          RI-J Method:                                     
              Auxiliary Basis Sets to approximate Coulomb      
              Potentials                                       
              Chem. Phys. Lett. 240: 283 (1995)                
              K. Eichkorn, O. Treutler, H. Oehm, M. Haeser     
              and R. Ahlrichs                                  
              Chem. Phys. Lett. 242: 652 (1995)                
                                                           
              Auxiliary Basis Sets for Main Row Atoms and their
              Use to approximate Coulomb Potentials            
              K. Eichkorn, F. Weigend, O. Treutler and         
              R. Ahlrichs                                      
              Theo. Chem. Acc. 97: 119 (1997)                   
                                                           
              Accurate Coulomb-fitting basis sets for H to Rn 
              F. Weigend                                        
              Phys. Chem. Chem. Phys. 8: 1057 (2006)            
                                                           
          Multipole accelerated RI-J (MARI-J):             
              Fast evaluation of the Coulomb potential for     
              electron densities using multipole accelerated   
              resolution of identity approximation             
              M. Sierka, A. Hogekamp and R. Ahlrichs           
              J. Chem. Phys. 118: 9136 (2003)                  
          RI-JK Method:                                     
              A fully direct RI-HF algorithm: Implementation,
              optimised auxiliary basis sets, demonstration of
              accuracy and efficiency                         
              F. Weigend                                      
              Phys. Chem. Chem. Phys. 4: 4285 (2002)           
          Two-component HF and DFT with spin-orbit coupling:  
              Self-consistent treatment of spin-orbit         
              interactions with efficient Hartree-Fock and    
              density functional methods                      
              M. K. Armbruster, F. Weigend, C. van Wüllen and 
              W. Klopper                                      
              Phys. Chem. Chem. Phys. 10: 1748 (2008)         
          Relativistic all-electron 2c calculations           
              An efficient implementation of two-component    
              relativistic exact-decoupling methods for large 
              molecules                                       
              D. Peng, N. Middendorf, F. Weigend, M. Reiher   
              J. Chem. Phys. 138, 184105 (2013)               
                                         




              +--------------------------------------------------+
              |      general information about current run       |
              +--------------------------------------------------+

 
 PBE0 hybrid functional
 exchange:    3/4 (LDA+PBE) + 1/4 HF
 correlation: LDA (PW) + PBE
 A Hybrid-DFT calculation using the RI-J approximation will be carried out.
 Allocatable memory for RI due to $ricore (MB):                  5000


              +--------------------------------------------------+
              | Atomic coordinate, charge and isotop information |
              +--------------------------------------------------+

                    atomic coordinates            atom    charge  isotop
        -12.73670004    6.96009242   -0.00387284    o      8.000     0
        -10.81780168    5.61805037   -0.00752701    c      6.000     0
         -8.30340135    6.76399852   -0.00927626    c      6.000     0
         -6.10547670    5.27660436   -0.00585669    c      6.000     0
         -6.20258473    2.60431766   -0.00105714    c      6.000     0
         -8.60136171    1.43621216    0.01034218    c      6.000     0
        -10.78562067    2.87076860    0.00699274    c      6.000     0
         -3.00622321    6.28747888   -0.01447938    s     16.000     0
         -2.05410712    3.10593603   -0.00133578    c      6.000     0
         -3.86791638    1.43323003    0.00427443    n      7.000     0
          0.61857336    2.59807885   -0.00560030    c      6.000     0
          1.57448590   -0.60966353    0.01056185    s     16.000     0
          2.37539408    4.34642041   -0.00638992    n      7.000     0
          4.77044430    3.38337305   -0.01039523    c      6.000     0
          4.81377868    0.45649939    0.00304768    c      6.000     0
          5.84426273   -0.21964556    1.68802766    h      1.000     0
          5.84234433   -0.23350496   -1.68044494    h      1.000     0
          6.72973584    4.58662680   -0.01458343    o      8.000     0
         -8.23740831    8.83213753   -0.01349532    h      1.000     0
        -13.97259749    1.25149611    0.00947158    br    35.000     0
         -8.69558957   -0.62834132    0.01638275    h      1.000     0
 
       center of nuclear mass  :   -5.47614846    2.94129910    0.00020922
       center of nuclear charge:   -5.16586221    2.98082234   -0.00004446

              +--------------------------------------------------+
              |               basis set information              |
              +--------------------------------------------------+

              we will work with the 1s 3p 5d 7f 9g ... basis set
              ...i.e. with spherical basis functions...

   type   atoms  prim   cont   basis
   ---------------------------------------------------------------------------
    o        2     24     14   def2-SV(P)   [3s2p1d|7s4p1d]
    c       10     24     14   def2-SV(P)   [3s2p1d|7s4p1d]
    s        2     36     18   def2-SV(P)   [4s3p1d|10s7p1d]
    n        2     24     14   def2-SV(P)   [3s2p1d|7s4p1d]
    h        4      4      2   def2-SV(P)   [2s|4s]
    br       1     74     32   def2-SV(P)   [5s4p3d|14s10p6d]
   ---------------------------------------------------------------------------
   total:   21    498    272
   ---------------------------------------------------------------------------

   total number of primitive shells          :   88
   total number of contracted shells         :  120
   total number of cartesian basis functions :  291
   total number of SCF-basis functions       :  272


 integral neglect threshold       :  0.11E-10
 integral storage threshold THIZE :  0.10E-04
 integral storage threshold THIME :         5

 RI-J AUXILIARY BASIS SET information:

              we will work with the 1s 3p 5d 7f 9g ... basis set
              ...i.e. with spherical basis functions...

   type   atoms  prim   cont   basis
   ---------------------------------------------------------------------------
    o        2     70     49   def2-SV(P)   [6s4p3d1f1g|12s5p4d2f1g]
    c       10     70     49   def2-SV(P)   [6s4p3d1f1g|12s5p4d2f1g]
    s        2     77     51   def2-SV(P)   [8s4p3d1f1g|14s5p5d2f1g]
    n        2     70     49   def2-SV(P)   [6s4p3d1f1g|12s5p4d2f1g]
    h        4     16     11   def2-SV(P)   [3s1p1d|5s2p1d]
    br       1     89     58   def2-SV(P)   [8s4p3d2f1g|19s5p5d3f1g]
   ---------------------------------------------------------------------------
   total:   21   1287    890
   ---------------------------------------------------------------------------

   total number of primitive shells          :  140
   total number of contracted shells         :  282
   total number of cartesian basis functions : 1101
   total number of SCF-basis functions       :  890


 symmetry group of the molecule :   c1 

 the group has the following generators :
   c1(z)

    1 symmetry operations found

 there are 1 real representations :   a   

 maximum number of shells which are related by symmetry :  1


    mo occupation :
   irrep   mo's   occupied
    a      272       81
 
 number of basis functions   :                    272
 number of occupied orbitals :                     81
 
  
           ------------------
           density functional
           ------------------
 PBE0 hybrid functional
 exchange:    3/4 (LDA+PBE) + 1/4 HF
 correlation: LDA (PW) + PBE

 iterations will be done with small grid
  
 spherical integration : Lebedev's spherical grid
 spherical gridsize    :                     5
    i.e. gridpoints    :                   590
 value for diffuse not defined
 radial integration    : Chebyshev 2nd kind (scaling 3)
 radial gridsize       :                     8
 integration cells     :                    21
 partition function    : becke
 partition sharpness   :                     3
  

 biggest AO integral is expected to be    21.668154127
  
           ------------------------
               RI-J - INFORMATION
           ------------------------
 Contributions to RI integral batches: 
  neglected integral batches:                  2343
  direct contribution:                            0
  memory contribution:                  4917
 Memory core needed for (P|Q) and Cholesky      7 MByte
 Memory core minimum needed except of (P|Q)     1 MByte
 Total minimum memory core needed (sum)         7 MByte
  
 ****************************************
 Memory allocated for RI-J   243 MByte
 ****************************************
                                            

          ------------------------
          nuclear repulsion energy  :   1647.51268876    
          ------------------------


         -----------------
         -S,T+V- integrals
         -----------------

 1e-integrals will be neglected if expon. factor < 0.114844E-11
 
   Difference densities algorithm switched on.
   The maximal number of linear combinations of
   difference densities is                    20 .

 DIIS switched on: error vector is FDS-SDF
 Max. Iterations for DIIS is     :   4
 DIIS matrix (see manual) 
    Scaling factor of diagonals  :  1.200
    threshold for scaling factor :  0.000

 scf convergence criterion : increment of total energy < .1000000D-06
                  and increment of one-electron energy < .1000000D-03

  MOs are in ASCII format !


 automatic virtual orbital shift switched on 
      shift if e(lumo)-e(homo) < 0.10000000    


 reading orbital data $scfmo  from file mos
 orbital characterization : scfconv=7

 dump of DSCF restart information has been disabled !


 Starting SCF iterations

          Overall gridpoints after grid construction =        122138

 ITERATION  ENERGY          1e-ENERGY        2e-ENERGY     NORM[dD(SAO)]  TOL
   1  -4011.7267397180    -8855.4630098     3196.2235814    0.000D+00 0.115D-10
                            Exc = -172.721357980     Coul =  3424.60263873    
                            exK = -55.6576993923    
                              N = 161.99999762    
                            current damping = 0.700
 
          max. resid. norm for Fia-block=  3.345D-03 for orbital      1a         
          max. resid. fock norm         =  6.389D-03 for orbital    196a         

 ITERATION  ENERGY          1e-ENERGY        2e-ENERGY     NORM[dD(SAO)]  TOL
   2  -4011.7267902657    -8855.4677052     3196.2282262    0.219D-01 0.726D-11
                            Exc = -172.721355382      Eck =  3368.94958156    
                              N = 161.99999763    
                            current damping = 0.650
 
          Norm of current diis error: 0.75580E-02
          max. resid. norm for Fia-block=  1.377D-03 for orbital      1a         
          max. resid. fock norm         =  2.619D-03 for orbital    196a         

 ITERATION  ENERGY          1e-ENERGY        2e-ENERGY     NORM[dD(SAO)]  TOL
   3  -4011.7267997431    -8855.4647714     3196.2252829    0.585D-02 0.564D-11
                            Exc = -172.720936683      Eck =  3368.94621956    
                              N = 161.99999768    
                            current damping = 0.600
 
          Norm of current diis error: 0.46942E-02
          max. resid. norm for Fia-block=  5.425D-04 for orbital      1a         
          max. resid. fock norm         =  1.064D-03 for orbital    196a         

 ITERATION  ENERGY          1e-ENERGY        2e-ENERGY     NORM[dD(SAO)]  TOL
   4  -4011.7268030280    -8855.4646225     3196.2251308    0.236D-02 0.520D-11
                            Exc = -172.721219739      Eck =  3368.94635050    
                              N = 161.99999766    
                            current damping = 0.450
 
          Norm of current diis error: 0.20503E-02
          max. resid. norm for Fia-block=  2.035D-04 for orbital      1a         
          max. resid. fock norm         =  4.237D-04 for orbital    193a         

 ITERATION  ENERGY          1e-ENERGY        2e-ENERGY     NORM[dD(SAO)]  TOL
   5  -4011.7268036169    -8855.4662731     3196.2267807    0.134D-02 0.500D-11
                            Exc = -172.721013034      Eck =  3368.94779377    
                              N = 161.99999768    
                            current damping = 0.500
 
          Norm of current diis error: 0.12396E-02
          max. resid. norm for Fia-block=  8.174D-05 for orbital     81a         
          max. resid. fock norm         =  1.692D-04 for orbital    263a         
          mo-orthogonalization: Cholesky decomposition

 ITERATION  ENERGY          1e-ENERGY        2e-ENERGY     NORM[dD(SAO)]  TOL
   6  -4011.7268041409    -8855.4652800     3196.2257871    0.512D-03 0.488D-11
                            Exc = -172.721072317      Eck =  3368.94685941    
                              N = 161.99999769    
                            current damping = 0.550
 
          Norm of current diis error: 0.32738E-03
          max. resid. norm for Fia-block=  2.288D-05 for orbital     74a         
          max. resid. fock norm         =  5.257D-05 for orbital    239a         

 ENERGY CONVERGED !

          Overall gridpoints after grid construction =        372409

 ITERATION  ENERGY          1e-ENERGY        2e-ENERGY     NORM[dD(SAO)]  TOL
   7  -4011.7268075987    -8855.4655046     3196.2260082    0.172D-03 0.479D-11
                            Exc = -172.721082376      Eck =  3368.94709062    
                              N = 161.99999856    
                            current damping = 0.600
 
          Norm of current diis error: 0.17725E-03
          max. resid. norm for Fia-block=  1.004D-05 for orbital     69a         
          max. resid. fock norm         =  1.707D-05 for orbital    200a         

 End of SCF iterations

   convergence criteria satisfied after     7 iterations


                  ------------------------------------------ 
                 |  total energy      =  -4011.72680759871  |
                  ------------------------------------------ 
                 :  kinetic energy    =   4002.30154468981  :
                 :  potential energy  =  -8014.02835228853  :
                 :  virial theorem    =      1.99765057210  :
                 :  wavefunction norm =      1.00000000000  :
                  .......................................... 


 <geterg> : there is no data group $energy 


 orbitals $scfmo  will be written to file mos

    irrep                 77a         78a         79a         80a         81a   
 eigenvalues H         -0.17307    -0.16438    -0.12776    -0.11931    -0.07672
            eV          -4.7095     -4.4730     -3.4764     -3.2466     -2.0877
 occupation              2.0000      2.0000      2.0000      2.0000      2.0000 

    irrep                 82a         83a         84a         85a         86a   
 eigenvalues H          0.01603     0.10590     0.11805     0.12717     0.13222
            eV           0.4363      2.8818      3.2123      3.4605      3.5980
 
 
 
 
 ==============================================================================
                           electrostatic moments
 ==============================================================================

 reference point for electrostatic moments:    0.00000   0.00000   0.00000

 
              nuc           elec       ->  total
 ------------------------------------------------------------------------------
                          charge      
 ------------------------------------------------------------------------------
         161.000000    -162.000000      -1.000000
 
 ------------------------------------------------------------------------------
                       dipole moment  
 ------------------------------------------------------------------------------
   x    -831.703816     837.519088       5.815273
   y     479.912396    -484.972824      -5.060428
   z      -0.007159       0.009973       0.002815
 
   | dipole moment | =     7.7088 a.u. =    19.5938 debye 
 
 ------------------------------------------------------------------------------
                     quadrupole moment
 ------------------------------------------------------------------------------
  xx   12048.905468  -12241.005462    -192.099994
  yy    2376.020884   -2500.046043    -124.025159
  zz       5.687204     -98.535846     -92.848641
  xy   -2598.905282    2625.192838      26.287556
  xz      -4.261236       4.310942       0.049706
  yz      -3.092346       3.123013       0.030667
 
     1/3  trace=    -136.324598
     anisotropy=      99.003089
 
 ==============================================================================
 


    ------------------------------------------------------------------------
         total  cpu-time :  59.35 seconds
         total wall-time :  59.36 seconds
    ------------------------------------------------------------------------

   ****  ridft : all done  ****


    2018-02-09 13:09:18.647 


 egrad (missouri) : TURBOMOLE V7.2 ( 21454 ) 4 Oct 2017 at 12:24:43
 Copyright (C) 2017 TURBOMOLE GmbH, Karlsruhe


    2018-02-09 13:09:18.657 




                               e g r a d

                             TURBOMOLE GmbH


             integral direct evaluation of excited state
                     and polarizability gradients
                 and first-order nonadiabatic couplings



          references (see also programs escf, dscf and ridft) 

          review 
          F. Furche and D. Rappoport,  
          "Density functional methods for excited states: 
          equilibrium structure and electronic spectra",
          ch. III of "Computational Photochemistry", ed. by 
          M. Olivucci, vol. 16 of "Theoretical and Computational 
          Chemistry", Elsevier, Amsterdam, 2005.

          nonorthonormal Krylov space methods 
          F. Furche, B. T. Krull, B. D. Nguyen, J. Kwon, 
          J. Chem. Phys. 144 (2016), 174105.

          RI-J method 
          D. Rappoport and F. Furche, 
          J. Chem. Phys. 122 (2005), 064105.

          Lagrangian method, implementation, benchmarks 
          F. Furche and R. Ahlrichs,
          J. Chem. Phys. 117 (2002), 7433;
          J. Chem. Phys. 121 (2004), 12772 (E).

          Polarizability derivatives, Raman intensities 
          D. Rappoport and F. Furche, 
          J. Chem. Phys. 126 (2007), 201104.

          First-order nonadiabatic couplings 
          R. Send and F. Furche, 
          J. Chem. Phys. 132 (2010), 044107.
                                     




              +--------------------------------------------------+
              | Atomic coordinate, charge and isotop information |
              +--------------------------------------------------+

                    atomic coordinates            atom    charge  isotop
        -12.73670004    6.96009242   -0.00387284    o      8.000     0
        -10.81780168    5.61805037   -0.00752701    c      6.000     0
         -8.30340135    6.76399852   -0.00927626    c      6.000     0
         -6.10547670    5.27660436   -0.00585669    c      6.000     0
         -6.20258473    2.60431766   -0.00105714    c      6.000     0
         -8.60136171    1.43621216    0.01034218    c      6.000     0
        -10.78562067    2.87076860    0.00699274    c      6.000     0
         -3.00622321    6.28747888   -0.01447938    s     16.000     0
         -2.05410712    3.10593603   -0.00133578    c      6.000     0
         -3.86791638    1.43323003    0.00427443    n      7.000     0
          0.61857336    2.59807885   -0.00560030    c      6.000     0
          1.57448590   -0.60966353    0.01056185    s     16.000     0
          2.37539408    4.34642041   -0.00638992    n      7.000     0
          4.77044430    3.38337305   -0.01039523    c      6.000     0
          4.81377868    0.45649939    0.00304768    c      6.000     0
          5.84426273   -0.21964556    1.68802766    h      1.000     0
          5.84234433   -0.23350496   -1.68044494    h      1.000     0
          6.72973584    4.58662680   -0.01458343    o      8.000     0
         -8.23740831    8.83213753   -0.01349532    h      1.000     0
        -13.97259749    1.25149611    0.00947158    br    35.000     0
         -8.69558957   -0.62834132    0.01638275    h      1.000     0
 
       center of nuclear mass  :   -5.47614846    2.94129910    0.00020922
       center of nuclear charge:   -5.16586221    2.98082234   -0.00004446

              +--------------------------------------------------+
              |               basis set information              |
              +--------------------------------------------------+

              we will work with the 1s 3p 5d 7f 9g ... basis set
              ...i.e. with spherical basis functions...

   type   atoms  prim   cont   basis
   ---------------------------------------------------------------------------
    o        2     24     14   def2-SV(P)   [3s2p1d|7s4p1d]
    c       10     24     14   def2-SV(P)   [3s2p1d|7s4p1d]
    s        2     36     18   def2-SV(P)   [4s3p1d|10s7p1d]
    n        2     24     14   def2-SV(P)   [3s2p1d|7s4p1d]
    h        4      4      2   def2-SV(P)   [2s|4s]
    br       1     74     32   def2-SV(P)   [5s4p3d|14s10p6d]
   ---------------------------------------------------------------------------
   total:   21    498    272
   ---------------------------------------------------------------------------

   total number of primitive shells          :   88
   total number of contracted shells         :  120
   total number of cartesian basis functions :  291
   total number of SCF-basis functions       :  272


 residuum convergence criterium   :  0.10E-04


 integral neglect threshold       :  0.11E-10
 integral storage threshold THIZE :  0.10E-04
 integral storage threshold THIME :         5

 
             FOUND RI-J FLAG !
 
  
 AUXILIARY BASIS SET information:

              we will work with the 1s 3p 5d 7f 9g ... basis set
              ...i.e. with spherical basis functions...

   type   atoms  prim   cont   basis
   ---------------------------------------------------------------------------
    o        2     70     49   def2-SV(P)   [6s4p3d1f1g|12s5p4d2f1g]
    c       10     70     49   def2-SV(P)   [6s4p3d1f1g|12s5p4d2f1g]
    s        2     77     51   def2-SV(P)   [8s4p3d1f1g|14s5p5d2f1g]
    n        2     70     49   def2-SV(P)   [6s4p3d1f1g|12s5p4d2f1g]
    h        4     16     11   def2-SV(P)   [3s1p1d|5s2p1d]
    br       1     89     58   def2-SV(P)   [8s4p3d2f1g|19s5p5d3f1g]
   ---------------------------------------------------------------------------
   total:   21   1287    890
   ---------------------------------------------------------------------------

   total number of primitive shells          :  140
   total number of contracted shells         :  282
   total number of cartesian basis functions : 1101
   total number of SCF-basis functions       :  890

 RPA SINGLET-EXCITATION-CALCULATION 
 
             FOUND DFT-FLAG !
 

 symmetry group of the molecule :   c1 

 the group has the following generators :
   c1(z)

    1 symmetry operations found

 there are 1 real representations :   a   

 maximum number of shells which are related by symmetry :  1

 IRREP of excited state :   a   
 

 determining totally symmetric integral contributions 
    - equivalent to irreducible tensor elements - 
 which can be formed within each triple of representations :

             representation triple      contributions

              a     a     a               1

    mo occupation :
   irrep   mo's   occupied
    a      272       81
 
 number of basis functions   :                    272
 number of occupied orbitals :                     81
 
  
           ------------------
           density functional
           ------------------
 PBE0 hybrid functional
 exchange:    3/4 (LDA+PBE) + 1/4 HF
 correlation: LDA (PW) + PBE

 iterations will be done with small grid
  
 spherical integration : Lebedev's spherical grid
 spherical gridsize    :                     5
    i.e. gridpoints    :                   590
 value for diffuse not defined
 radial integration    : Chebyshev 2nd kind (scaling 3)
 radial gridsize       :                     8
 integration cells     :                    21
 partition function    : becke
 partition sharpness   :                     3
  
  
           ----------------------
               RI - INFORMATION
           ----------------------

 biggest AO integral is expected to be    21.668154127

 Threshold for integral neglect (rithr2):   0.11E-10
 Threshold for integral neglect (rithr1):   0.11E-10

 Contributions to RI integral batches: 
  neglected integral batches:                  2185
  direct contribution:                            0
  memory contribution:                  5075
 Core memory available (ricore)            5000 MiB
 Core memory needed for (P|Q) and Cholesky 7 MiB
 Core memory used for integrals            244 MiB
  
 ****************************************
 Memory allocated for RIDFT 250 MiB
 ****************************************
                                            
  MOs are in ASCII format !


 reading orbital data $scfmo  from file mos
 orbital characterization : scfconv=7
 preparing numerical integration ....
          Overall gridpoints after grid construction =        122138

 Calculating ground state density on molecular grid

 Integral of ground state density: N =   161.9999976886390    



 number of non-frozen orbitals          :   272
 number of non-frozen occupied orbitals :    81



                        -------------------
                         excitation vector 
                        -------------------


 dimension of super-tensorspace: 2

          IRREP   tensor space dimension   number of roots

           a             15471                   1

 maximum number of Davidson iterations set to   50


 machine precision: 2.22D-16


 logfile sing_a    will be constructed


                       Nonorthonormal Krylov Space Iteration


 total number of roots to be determined:   1


 maximum core memory set to   500 MB,
 corresponding to      379 vectors in CAO basis


 maximum number of simultaneously treated vectors (including degeneracy):        2


 Iteration IRREP Converged      Max. Euclidean
                 roots          residual norm

    1       a        0        3.023070841278454D-02
 
    2       a        0        1.857484127516361D-02
 
    3       a        0        8.926622628412013D-02
 
    4       a        0        4.010928709040607D-02
 
    5       a        0        1.656945629960237D-02
 
    6       a        0        6.688270169703500D-03
 
    7       a        0        3.149837101232330D-03
 
    8       a        0        1.714347752764670D-03
 
    9       a        0        8.104298190053603D-04
 
   10       a        0        3.794374587552880D-04
 
   11       a        0        1.425515259774103D-04
 
   12       a        0        6.498833526504810D-05
 
   13       a        0        1.906441423259927D-05
 
   14       a        1        9.384445556272741D-06
 

 converged!


 Switching to fine grid

 preparing numerical integration ....
          Overall gridpoints after grid construction =        372409

 Calculating ground state density on molecular grid

 Integral of ground state density: N =   161.9999985616707    



 Iteration IRREP Converged      Max. Euclidean
                 roots          residual norm

   15       a        0        1.181040556195433D-05
 

 NOTE: Residual norms are larger than 1.00D-05 due to mgrid option!

 Eigenpairs written on logfile sing_a   



 IRREP   Vector     Eigenvalue           Euclidean residual norm

  a         1    8.754198189211850D-02    1.181040556195433D-05
 




                    Selection rules for point group c1  


 Subduction with respect to c1  :

    Polar vector representation: a                           

    Axial vector representation: a                           

    Symmetric second rank tensor representation: a                           




                            Ground state


 Total energy:                           -4011.726807599000    

 Charge:

               elec          nuc         total

          -162.000000   161.000000    -1.000000


 Electric dipole moment:

               elec          nuc         total   

    x      837.519088  -831.703816     5.815273    Norm:              7.708783
    y     -484.972824   479.912396    -5.060428
    z        0.009973    -0.007159     0.002815    Norm / debye:     19.593920


 Electric quadrupole moment:

               elec          nuc         total   

   xx   -12241.005462 12048.905468  -192.099994
   yy    -2500.046043  2376.020884  -124.025159    1/3*trace:      -136.324598
   zz      -98.535846     5.687204   -92.848641
   xy     2625.192838 -2598.905282    26.287556
   xz        4.310942    -4.261236     0.049706    Anisotropy:       99.003089
   yz        3.123013    -3.092346     0.030667



 ==============================================================================

                              I R R E P   a   

 ==============================================================================


 Excitation is electric dipole allowed

 Excitation is magnetic dipole allowed

 Excitation is electric quadrupole allowed




                         1 singlet a excitation


 Total energy:                           -4011.639265617108    

 Excitation energy:                      0.8754198189211850E-01

 Excitation energy / eV:                  2.382139550773402    

 Excitation energy / nm:                  520.4743104416981    

 Excitation energy / cm^(-1):             19213.24414651879    


 Oscillator strength:

    velocity representation:             0.4294634356074856    

    length representation:               0.4881008667152913    

    mixed representation:                0.4578432225897808    


 Rotatory strength:

    velocity representation:            -0.1874011622323433E-04

    velocity rep. / 10^(-40)erg*cm^3:    -1.210701768033841    

    length representation:              -0.2004370780097890E-04

    length rep. / 10^(-40)erg*cm^3:      -1.294920062582763    


 Dominant contributions:

      occ. orbital   energy / eV   virt. orbital     energy / eV   |coeff.|^2*100
       81 a              -2.09          82 a               0.44       92.1
 

 Change of electron number:

            -0.000000


 Electric transition dipole moment (velocity rep.):

    x       -2.693009        Norm:                  2.712692
    y        0.326194
    z        0.001008        Norm / debye:          6.895028


 Electric transition dipole moment (length rep.):

    x       -2.870187        Norm:                  2.891960
    y        0.354202
    z        0.001038        Norm / debye:          7.350684


 Magnetic transition dipole moment / i:

    x        0.000008        Norm:                  0.001830
    y       -0.000001
    z        0.001830        Norm / Bohr mag.:      0.501689


 Electric quadrupole transition moment:

   xx       23.584851
   yy        2.535037        1/3*trace:             8.664569
   zz       -0.126181
   xy      -11.058690
   xz        0.001312        Anisotropy:           29.547908
   yz        0.004279
 

 Excited state no.    1 chosen for optimization


                       ----------------------
                        CPKS right-hand side 
                       ----------------------


          IRREP   tensor space dimension   number of roots

           a             15471                   1

                          ----------------
                           CPKS equations 
                          ----------------


 logfile dipl_a    will be constructed

 Switching to coarse grid

 preparing numerical integration ....
          Overall gridpoints after grid construction =        122138


                       Nonorthonormal Krylov Space Iteration


 total number of roots to be determined:   1


 maximum core memory set to   500 MB,
 corresponding to      754 vectors in CAO basis


 maximum number of simultaneously treated vectors (including degeneracy):        1


 Iteration IRREP Converged      Max. Euclidean
                 roots          residual norm

    1       a        0        1.066076112091637D-01
 
    2       a        0        4.936246269966207D-02
 
    3       a        0        2.035177814994273D-02
 
    4       a        0        8.083558219454213D-03
 
    5       a        0        3.391985258444733D-03
 
    6       a        0        9.688717940698953D-04
 
    7       a        0        3.943582813732902D-04
 
    8       a        0        1.405031662846641D-04
 
    9       a        0        5.981370009822597D-05
 
   10       a        0        1.638504917657556D-05
 
   11       a        1        6.897278926571122D-06
 

 converged!


 Switching to fine grid

 preparing numerical integration ....
          Overall gridpoints after grid construction =        372409

 Iteration IRREP Converged      Max. Euclidean
                 roots          residual norm

   12       a        0        1.593859412315268D-05
 

 NOTE: Residual norms are larger than 1.00D-05 due to mgrid option!

 Eigenpairs written on logfile dipl_a   



 IRREP   Vector     Frequency            Euclidean residual norm

  a         1    0.000000000000000D+00    1.593859412315268D-05
 

                          -------------------
                           relaxed densities 
                          -------------------


    ----------------------------------------
     S+T+V CONTRIBUTIONS TO ENERGY GRADIENT 
    ----------------------------------------

 1e-integral 1st. derivatives will be neglected if expon. factor < 0.100000E-10


    -----------------------------------------------
     TWO ELECTRON CONTRIBUTIONS TO ENERGY GRADIENT 
    -----------------------------------------------

 setting up bound for integral derivative estimation

 increment for numerical differentiation : 0.00050000

 biggest AO integral is expected to be    21.668154127
 biggest cartesian 1st derivative AO integral is expected to be    83.347447328

 biggest 1-particle AO density matrix element is expected to be    3.2085305627

 core memory to be involved in 2e-gradient :
   symmetry shell pair data              :         1
   two particle density+dens. estimates  :      8556
   derivative integrals                  :      8498
   derivative integral bound             :     21780
   totally                               :     30276


 setting up bound for integral derivative estimation

 increment for numerical differentiation : 0.00050000

 biggest AO integral is expected to be    21.668154127
 biggest cartesian 1st derivative AO integral is expected to be    83.347447328

 2e-integral 1st. derivatives will be neglected if expon. factor < 0.100000E-06
 outer boundary for 2e-integral derivative neglection is 0.161896E-08

 Integrated ground state density     :   161.9999985616686    


          ------------------------------------------------
           cartesian gradient of the energy (hartree/bohr)
          ------------------------------------------------

  ATOM      1 o           2 c           3 c           4 c           5 c 
dE/dx  0.1334805D-02 -0.1887309D-02 -0.1826929D-02  0.3185982D-02  0.1952592D-02
dE/dy  0.8135786D-04 -0.1824484D-02 -0.1055842D-03  0.3056695D-02 -0.3566380D-02
dE/dz  0.3522825D-03 -0.9383954D-03  0.2495263D-03  0.3584940D-03 -0.6512921D-03

  ATOM      6 c           7 c           8 s           9 c          10 n 
dE/dx -0.2548398D-02  0.1234417D-02 -0.7011555D-03 -0.2997132D-02  0.1212721D-02
dE/dy -0.1103185D-03  0.8785571D-03 -0.1160287D-02 -0.6872388D-03  0.2640293D-02
dE/dz  0.3404820D-03  0.3997364D-03 -0.1999984D-03  0.3698707D-03  0.6265705D-04

  ATOM     11 c          12 s          13 n          14 c          15 c 
dE/dx -0.1714653D-02 -0.2381489D-04  0.4624509D-02 -0.1335355D-02 -0.1443963D-02
dE/dy -0.2931686D-02  0.1545995D-03  0.2071497D-02  0.2263023D-03  0.1134985D-02
dE/dz -0.6045386D-03  0.1967928D-03  0.5494158D-03 -0.6843104D-03  0.8273279D-03

  ATOM     16 h          17 h          18 o          19 h          20 br
dE/dx  0.4437046D-03  0.8424811D-03 -0.1294518D-02  0.2697670D-03  0.4713252D-03
dE/dy -0.1247304D-03 -0.2612690D-03 -0.5474854D-03  0.1286544D-02  0.2270119D-03
dE/dz  0.7782748D-04 -0.7182418D-03  0.1913684D-03 -0.1553131D-04 -0.9198434D-04

  ATOM     21 h 
dE/dx  0.1856896D-03
dE/dy -0.4421352D-03
dE/dz -0.7134406D-04
 
 resulting FORCE  (fx,fy,fz) = (-.152D-04,-.376D-05,0.145D-06)
 resulting MOMENT (mx,my,mz) = (0.733D-05,0.104D-04,-.127D-04)


 **********************************************************************
  |maximum component of gradient| : 0.46245094E-02  (atom 13 n )       
   gradient norm                  : 0.11346333E-01
 **********************************************************************

 exx =      -0.015852 eyy =       0.005240 ezz =       0.001356
 eyz =       0.000258 exz =      -0.000653 exy =       0.003231


 <getgrd> : data group $grad  is missing 

   ***  cartesian gradients written onto <gradient>  ***
 
 
 
 ==============================================================================
                           electrostatic moments
 ==============================================================================

 reference point for electrostatic moments:    0.00000   0.00000   0.00000

 
              nuc           gs,e       ->  gs,tot          excit     ->  total
 ------------------------------------------------------------------------------
                          charge      
 ------------------------------------------------------------------------------
         161.000000    -162.000000      -1.000000      -0.000000      -1.000000
 
 ------------------------------------------------------------------------------
                       dipole moment  
 ------------------------------------------------------------------------------
   x    -831.703816     837.519088       5.815273      -0.946300       4.868973
   y     479.912396    -484.972824      -5.060428       0.859661      -4.200767
   z      -0.007159       0.009973       0.002815      -0.001754       0.001061
 
   | dipole moment | =     6.4307 a.u. =    16.3451 debye 
 
 ------------------------------------------------------------------------------
                     quadrupole moment
 ------------------------------------------------------------------------------
  xx   12048.905468  -12241.005462    -192.099994       1.135651    -190.964343
  yy    2376.020884   -2500.046043    -124.025159       7.434203    -116.590956
  zz       5.687204     -98.535846     -92.848641       0.109419     -92.739223
  xy   -2598.905282    2625.192838      26.287556      -8.610371      17.677185
  xz      -4.261236       4.310942       0.049706       0.022441       0.072148
  yz      -3.092346       3.123013       0.030667      -0.010282       0.020384
 
     1/3  trace=    -133.431507
     anisotropy=      93.870685
 
 ==============================================================================
 


    ------------------------------------------------------------------------
         total  cpu-time :  5 minutes and 46 seconds
         total wall-time :  5 minutes and 46 seconds
    ------------------------------------------------------------------------

   ****  egrad : all done  ****


    2018-02-09 13:15:04.689 

$dipole from egrad
  x     4.86897250381958    y    -4.20076728804673    z     0.00106089055410    a.u.
   | dipole | =   16.3452214295  debye
/work/bdnguye2/luc_project/5_brluc/ex_geo_opt/save/numforce/KraftWerk/p011
