 operating system is UNIX !

 ridft (missouri) : TURBOMOLE V7.2 ( 21454 ) 4 Oct 2017 at 12:48:15
 Copyright (C) 2017 TURBOMOLE GmbH, Karlsruhe


    2018-02-09 13:29:27.488 



                                  r i d f t

                        DFT program with RI approximation 
                                for coulomb part 




                                                 
                                 References:     
                                                 
          TURBOMOLE:                             
              R. Ahlrichs, M. Baer, M. Haeser, H. Horn, and
              C. Koelmel
              Electronic structure calculations on workstation
              computers: the program system TURBOMOLE
              Chem. Phys. Lett. 162: 165 (1989)
          Density Functional:                              
              O. Treutler and R. Ahlrichs                      
              Efficient Molecular Numerical Integration Schemes
              J. Chem. Phys. 102: 346 (1995)                   
          Parallel Version:                                
              Performance of parallel TURBOMOLE for Density    
              Functional Calculations                          
              M. v. Arnim and R. Ahlrichs                      
              J. Comp. Chem. 19: 1746 (1998)                   
          RI-J Method:                                     
              Auxiliary Basis Sets to approximate Coulomb      
              Potentials                                       
              Chem. Phys. Lett. 240: 283 (1995)                
              K. Eichkorn, O. Treutler, H. Oehm, M. Haeser     
              and R. Ahlrichs                                  
              Chem. Phys. Lett. 242: 652 (1995)                
                                                           
              Auxiliary Basis Sets for Main Row Atoms and their
              Use to approximate Coulomb Potentials            
              K. Eichkorn, F. Weigend, O. Treutler and         
              R. Ahlrichs                                      
              Theo. Chem. Acc. 97: 119 (1997)                   
                                                           
              Accurate Coulomb-fitting basis sets for H to Rn 
              F. Weigend                                        
              Phys. Chem. Chem. Phys. 8: 1057 (2006)            
                                                           
          Multipole accelerated RI-J (MARI-J):             
              Fast evaluation of the Coulomb potential for     
              electron densities using multipole accelerated   
              resolution of identity approximation             
              M. Sierka, A. Hogekamp and R. Ahlrichs           
              J. Chem. Phys. 118: 9136 (2003)                  
          RI-JK Method:                                     
              A fully direct RI-HF algorithm: Implementation,
              optimised auxiliary basis sets, demonstration of
              accuracy and efficiency                         
              F. Weigend                                      
              Phys. Chem. Chem. Phys. 4: 4285 (2002)           
          Two-component HF and DFT with spin-orbit coupling:  
              Self-consistent treatment of spin-orbit         
              interactions with efficient Hartree-Fock and    
              density functional methods                      
              M. K. Armbruster, F. Weigend, C. van Wüllen and 
              W. Klopper                                      
              Phys. Chem. Chem. Phys. 10: 1748 (2008)         
          Relativistic all-electron 2c calculations           
              An efficient implementation of two-component    
              relativistic exact-decoupling methods for large 
              molecules                                       
              D. Peng, N. Middendorf, F. Weigend, M. Reiher   
              J. Chem. Phys. 138, 184105 (2013)               
                                         




              +--------------------------------------------------+
              |      general information about current run       |
              +--------------------------------------------------+

 
 PBE0 hybrid functional
 exchange:    3/4 (LDA+PBE) + 1/4 HF
 correlation: LDA (PW) + PBE
 A Hybrid-DFT calculation using the RI-J approximation will be carried out.
 Allocatable memory for RI due to $ricore (MB):                  5000


              +--------------------------------------------------+
              | Atomic coordinate, charge and isotop information |
              +--------------------------------------------------+

                    atomic coordinates            atom    charge  isotop
        -12.73622395    6.95960081   -0.00537399    o      8.000     0
        -10.81916498    5.61591349   -0.00501691    c      6.000     0
         -8.29992721    6.76676905   -0.00603044    c      6.000     0
         -6.10982581    5.27151121   -0.00940945    c      6.000     0
         -6.20627467    2.60998640    0.00498740    c      6.000     0
         -8.59769748    1.43970230    0.00414508    c      6.000     0
        -10.79173278    2.86757992    0.00420670    c      6.000     0
         -3.00043794    6.29270168   -0.01216740    s     16.000     0
         -2.05230905    3.10149474   -0.00480302    c      6.000     0
         -3.86919236    1.43245442    0.00661044    n      7.000     0
          0.61966381    2.59840249   -0.00565824    c      6.000     0
          1.57470686   -0.60811739    0.01091474    s     16.000     0
          2.37594555    4.34358873   -0.01041511    n      7.000     0
          4.76979353    3.38271837   -0.00531761    c      6.000     0
          4.81972411    0.45707294    0.00347093    c      6.000     0
          5.83767019   -0.22663751    1.68780344    h      1.000     0
          5.84230066   -0.23486664   -1.68311396    h      1.000     0
          6.72990719    4.58700014   -0.01071339    o      8.000     0
         -8.23249091    8.83150350   -0.01442823    h      1.000     0
        -13.97836790    1.24509930    0.01071736    br    35.000     0
         -8.69404343   -0.62156725    0.01134322    h      1.000     0
 
       center of nuclear mass  :   -5.47697360    2.94013801    0.00083446
       center of nuclear charge:   -5.16652734    2.97982777    0.00052661

              +--------------------------------------------------+
              |               basis set information              |
              +--------------------------------------------------+

              we will work with the 1s 3p 5d 7f 9g ... basis set
              ...i.e. with spherical basis functions...

   type   atoms  prim   cont   basis
   ---------------------------------------------------------------------------
    o        2     24     14   def2-SV(P)   [3s2p1d|7s4p1d]
    c       10     24     14   def2-SV(P)   [3s2p1d|7s4p1d]
    s        2     36     18   def2-SV(P)   [4s3p1d|10s7p1d]
    n        2     24     14   def2-SV(P)   [3s2p1d|7s4p1d]
    h        4      4      2   def2-SV(P)   [2s|4s]
    br       1     74     32   def2-SV(P)   [5s4p3d|14s10p6d]
   ---------------------------------------------------------------------------
   total:   21    498    272
   ---------------------------------------------------------------------------

   total number of primitive shells          :   88
   total number of contracted shells         :  120
   total number of cartesian basis functions :  291
   total number of SCF-basis functions       :  272


 integral neglect threshold       :  0.11E-10
 integral storage threshold THIZE :  0.10E-04
 integral storage threshold THIME :         5

 RI-J AUXILIARY BASIS SET information:

              we will work with the 1s 3p 5d 7f 9g ... basis set
              ...i.e. with spherical basis functions...

   type   atoms  prim   cont   basis
   ---------------------------------------------------------------------------
    o        2     70     49   def2-SV(P)   [6s4p3d1f1g|12s5p4d2f1g]
    c       10     70     49   def2-SV(P)   [6s4p3d1f1g|12s5p4d2f1g]
    s        2     77     51   def2-SV(P)   [8s4p3d1f1g|14s5p5d2f1g]
    n        2     70     49   def2-SV(P)   [6s4p3d1f1g|12s5p4d2f1g]
    h        4     16     11   def2-SV(P)   [3s1p1d|5s2p1d]
    br       1     89     58   def2-SV(P)   [8s4p3d2f1g|19s5p5d3f1g]
   ---------------------------------------------------------------------------
   total:   21   1287    890
   ---------------------------------------------------------------------------

   total number of primitive shells          :  140
   total number of contracted shells         :  282
   total number of cartesian basis functions : 1101
   total number of SCF-basis functions       :  890


 symmetry group of the molecule :   c1 

 the group has the following generators :
   c1(z)

    1 symmetry operations found

 there are 1 real representations :   a   

 maximum number of shells which are related by symmetry :  1


    mo occupation :
   irrep   mo's   occupied
    a      272       81
 
 number of basis functions   :                    272
 number of occupied orbitals :                     81
 
  
           ------------------
           density functional
           ------------------
 PBE0 hybrid functional
 exchange:    3/4 (LDA+PBE) + 1/4 HF
 correlation: LDA (PW) + PBE

 iterations will be done with small grid
  
 spherical integration : Lebedev's spherical grid
 spherical gridsize    :                     5
    i.e. gridpoints    :                   590
 value for diffuse not defined
 radial integration    : Chebyshev 2nd kind (scaling 3)
 radial gridsize       :                     8
 integration cells     :                    21
 partition function    : becke
 partition sharpness   :                     3
  

 biggest AO integral is expected to be    21.668154127
  
           ------------------------
               RI-J - INFORMATION
           ------------------------
 Contributions to RI integral batches: 
  neglected integral batches:                  2343
  direct contribution:                            0
  memory contribution:                  4917
 Memory core needed for (P|Q) and Cholesky      7 MByte
 Memory core minimum needed except of (P|Q)     1 MByte
 Total minimum memory core needed (sum)         7 MByte
  
 ****************************************
 Memory allocated for RI-J   243 MByte
 ****************************************
                                            

          ------------------------
          nuclear repulsion energy  :   1646.92616725    
          ------------------------


         -----------------
         -S,T+V- integrals
         -----------------

 1e-integrals will be neglected if expon. factor < 0.114844E-11
 
   Difference densities algorithm switched on.
   The maximal number of linear combinations of
   difference densities is                    20 .

 DIIS switched on: error vector is FDS-SDF
 Max. Iterations for DIIS is     :   4
 DIIS matrix (see manual) 
    Scaling factor of diagonals  :  1.200
    threshold for scaling factor :  0.000

 scf convergence criterion : increment of total energy < .1000000D-06
                  and increment of one-electron energy < .1000000D-03

  MOs are in ASCII format !


 automatic virtual orbital shift switched on 
      shift if e(lumo)-e(homo) < 0.10000000    


 reading orbital data $scfmo  from file mos
 orbital characterization : scfconv=7

 dump of DSCF restart information has been disabled !


 Starting SCF iterations

          Overall gridpoints after grid construction =        122144

 ITERATION  ENERGY          1e-ENERGY        2e-ENERGY     NORM[dD(SAO)]  TOL
   1  -4011.7263416040    -8854.2844013     3195.6318925    0.000D+00 0.115D-10
                            Exc = -172.720136187     Coul =  3424.00928848    
                            exK = -55.6572598394    
                              N = 161.99999857    
                            current damping = 0.700
 
          max. resid. norm for Fia-block=  4.115D-03 for orbital      1a         
          max. resid. fock norm         =  9.131D-03 for orbital    197a         

 ITERATION  ENERGY          1e-ENERGY        2e-ENERGY     NORM[dD(SAO)]  TOL
   2  -4011.7263952306    -8854.2927357     3195.6401732    0.335D-01 0.726D-11
                            Exc = -172.720120375      Eck =  3368.36029358    
                              N = 161.99999853    
                            current damping = 0.650
 
          Norm of current diis error: 0.80591E-02
          max. resid. norm for Fia-block=  1.695D-03 for orbital      1a         
          max. resid. fock norm         =  3.763D-03 for orbital    199a         

 ITERATION  ENERGY          1e-ENERGY        2e-ENERGY     NORM[dD(SAO)]  TOL
   3  -4011.7264056251    -8854.2898035     3195.6372306    0.521D-02 0.557D-11
                            Exc = -172.720266150      Eck =  3368.35749680    
                              N = 161.99999853    
                            current damping = 0.600
 
          Norm of current diis error: 0.47508E-02
          max. resid. norm for Fia-block=  6.678D-04 for orbital      1a         
          max. resid. fock norm         =  1.470D-03 for orbital    199a         

 ITERATION  ENERGY          1e-ENERGY        2e-ENERGY     NORM[dD(SAO)]  TOL
   4  -4011.7264093762    -8854.2930568     3195.6404802    0.200D-02 0.518D-11
                            Exc = -172.720219385      Eck =  3368.36069957    
                              N = 161.99999849    
                            current damping = 0.650
 
          Norm of current diis error: 0.18195E-02
          max. resid. norm for Fia-block=  2.504D-04 for orbital      1a         
          max. resid. fock norm         =  5.742D-04 for orbital    199a         

 ITERATION  ENERGY          1e-ENERGY        2e-ENERGY     NORM[dD(SAO)]  TOL
   5  -4011.7264099836    -8854.2930282     3195.6404510    0.105D-02 0.494D-11
                            Exc = -172.720187814      Eck =  3368.36063877    
                              N = 161.99999849    
                            current damping = 0.700
 
          Norm of current diis error: 0.74596E-03
          max. resid. norm for Fia-block=  9.866D-05 for orbital      1a         
          max. resid. fock norm         =  2.195D-04 for orbital    199a         
          mo-orthogonalization: Cholesky decomposition

 ITERATION  ENERGY          1e-ENERGY        2e-ENERGY     NORM[dD(SAO)]  TOL
   6  -4011.7264103278    -8854.2928463     3195.6402687    0.494D-03 0.479D-11
                            Exc = -172.720236966      Eck =  3368.36050566    
                              N = 161.99999850    
                            current damping = 0.550
 
          Norm of current diis error: 0.42739E-03
          max. resid. norm for Fia-block=  4.062D-05 for orbital      1a         
          max. resid. fock norm         =  9.684D-05 for orbital    199a         

 ITERATION  ENERGY          1e-ENERGY        2e-ENERGY     NORM[dD(SAO)]  TOL
   7  -4011.7264103631    -8854.2932551     3195.6406775    0.182D-03 0.468D-11
                            Exc = -172.720217175      Eck =  3368.36089469    
                              N = 161.99999850    
                            current damping = 0.600
 
          Norm of current diis error: 0.17034E-03
          max. resid. norm for Fia-block=  1.473D-05 for orbital     81a         
          max. resid. fock norm         =  3.204D-05 for orbital    199a         

 ENERGY CONVERGED !

          Overall gridpoints after grid construction =        372414

 ITERATION  ENERGY          1e-ENERGY        2e-ENERGY     NORM[dD(SAO)]  TOL
   8  -4011.7264137693    -8854.2930657     3195.6404847    0.703D-04 0.462D-11
                            Exc = -172.720226817      Eck =  3368.36071150    
                              N = 161.99999858    
                            current damping = 0.650
 
          Norm of current diis error: 0.88114E-04
          max. resid. norm for Fia-block=  6.668D-06 for orbital     79a         
          max. resid. fock norm         =  1.400D-05 for orbital    199a         

 End of SCF iterations

   convergence criteria satisfied after     8 iterations


                  ------------------------------------------ 
                 |  total energy      =  -4011.72641376934  |
                  ------------------------------------------ 
                 :  kinetic energy    =   4002.29838980460  :
                 :  potential energy  =  -8014.02480357394  :
                 :  virial theorem    =      1.99764988362  :
                 :  wavefunction norm =      1.00000000000  :
                  .......................................... 


 <geterg> : there is no data group $energy 


 orbitals $scfmo  will be written to file mos

    irrep                 77a         78a         79a         80a         81a   
 eigenvalues H         -0.17317    -0.16448    -0.12771    -0.11912    -0.07665
            eV          -4.7122     -4.4758     -3.4751     -3.2414     -2.0857
 occupation              2.0000      2.0000      2.0000      2.0000      2.0000 

    irrep                 82a         83a         84a         85a         86a   
 eigenvalues H          0.01569     0.10578     0.11797     0.12686     0.13164
            eV           0.4269      2.8783      3.2102      3.4522      3.5821
 
 
 
 
 ==============================================================================
                           electrostatic moments
 ==============================================================================

 reference point for electrostatic moments:    0.00000   0.00000   0.00000

 
              nuc           elec       ->  total
 ------------------------------------------------------------------------------
                          charge      
 ------------------------------------------------------------------------------
         161.000000    -162.000000      -1.000000
 
 ------------------------------------------------------------------------------
                       dipole moment  
 ------------------------------------------------------------------------------
   x    -831.810902     837.627821       5.816919
   y     479.752272    -484.815355      -5.063083
   z       0.084784      -0.080964       0.003820
 
   | dipole moment | =     7.7118 a.u. =    19.6014 debye 
 
 ------------------------------------------------------------------------------
                     quadrupole moment
 ------------------------------------------------------------------------------
  xx   12054.936925  -12246.959470    -192.022545
  yy    2375.959581   -2499.999409    -124.039828
  zz       5.694231     -98.545430     -92.851199
  xy   -2595.701935    2621.962946      26.261010
  xz      -4.440741       4.476613       0.035871
  yz      -2.729840       2.769052       0.039212
 
     1/3  trace=    -136.304524
     anisotropy=      98.912075
 
 ==============================================================================
 


    ------------------------------------------------------------------------
         total  cpu-time :  1 minutes and  4 seconds
         total wall-time :  1 minutes and  4 seconds
    ------------------------------------------------------------------------

   ****  ridft : all done  ****


    2018-02-09 13:30:31.372 


 egrad (missouri) : TURBOMOLE V7.2 ( 21454 ) 4 Oct 2017 at 12:24:43
 Copyright (C) 2017 TURBOMOLE GmbH, Karlsruhe


    2018-02-09 13:30:31.390 




                               e g r a d

                             TURBOMOLE GmbH


             integral direct evaluation of excited state
                     and polarizability gradients
                 and first-order nonadiabatic couplings



          references (see also programs escf, dscf and ridft) 

          review 
          F. Furche and D. Rappoport,  
          "Density functional methods for excited states: 
          equilibrium structure and electronic spectra",
          ch. III of "Computational Photochemistry", ed. by 
          M. Olivucci, vol. 16 of "Theoretical and Computational 
          Chemistry", Elsevier, Amsterdam, 2005.

          nonorthonormal Krylov space methods 
          F. Furche, B. T. Krull, B. D. Nguyen, J. Kwon, 
          J. Chem. Phys. 144 (2016), 174105.

          RI-J method 
          D. Rappoport and F. Furche, 
          J. Chem. Phys. 122 (2005), 064105.

          Lagrangian method, implementation, benchmarks 
          F. Furche and R. Ahlrichs,
          J. Chem. Phys. 117 (2002), 7433;
          J. Chem. Phys. 121 (2004), 12772 (E).

          Polarizability derivatives, Raman intensities 
          D. Rappoport and F. Furche, 
          J. Chem. Phys. 126 (2007), 201104.

          First-order nonadiabatic couplings 
          R. Send and F. Furche, 
          J. Chem. Phys. 132 (2010), 044107.
                                     




              +--------------------------------------------------+
              | Atomic coordinate, charge and isotop information |
              +--------------------------------------------------+

                    atomic coordinates            atom    charge  isotop
        -12.73622395    6.95960081   -0.00537399    o      8.000     0
        -10.81916498    5.61591349   -0.00501691    c      6.000     0
         -8.29992721    6.76676905   -0.00603044    c      6.000     0
         -6.10982581    5.27151121   -0.00940945    c      6.000     0
         -6.20627467    2.60998640    0.00498740    c      6.000     0
         -8.59769748    1.43970230    0.00414508    c      6.000     0
        -10.79173278    2.86757992    0.00420670    c      6.000     0
         -3.00043794    6.29270168   -0.01216740    s     16.000     0
         -2.05230905    3.10149474   -0.00480302    c      6.000     0
         -3.86919236    1.43245442    0.00661044    n      7.000     0
          0.61966381    2.59840249   -0.00565824    c      6.000     0
          1.57470686   -0.60811739    0.01091474    s     16.000     0
          2.37594555    4.34358873   -0.01041511    n      7.000     0
          4.76979353    3.38271837   -0.00531761    c      6.000     0
          4.81972411    0.45707294    0.00347093    c      6.000     0
          5.83767019   -0.22663751    1.68780344    h      1.000     0
          5.84230066   -0.23486664   -1.68311396    h      1.000     0
          6.72990719    4.58700014   -0.01071339    o      8.000     0
         -8.23249091    8.83150350   -0.01442823    h      1.000     0
        -13.97836790    1.24509930    0.01071736    br    35.000     0
         -8.69404343   -0.62156725    0.01134322    h      1.000     0
 
       center of nuclear mass  :   -5.47697360    2.94013801    0.00083446
       center of nuclear charge:   -5.16652734    2.97982777    0.00052661

              +--------------------------------------------------+
              |               basis set information              |
              +--------------------------------------------------+

              we will work with the 1s 3p 5d 7f 9g ... basis set
              ...i.e. with spherical basis functions...

   type   atoms  prim   cont   basis
   ---------------------------------------------------------------------------
    o        2     24     14   def2-SV(P)   [3s2p1d|7s4p1d]
    c       10     24     14   def2-SV(P)   [3s2p1d|7s4p1d]
    s        2     36     18   def2-SV(P)   [4s3p1d|10s7p1d]
    n        2     24     14   def2-SV(P)   [3s2p1d|7s4p1d]
    h        4      4      2   def2-SV(P)   [2s|4s]
    br       1     74     32   def2-SV(P)   [5s4p3d|14s10p6d]
   ---------------------------------------------------------------------------
   total:   21    498    272
   ---------------------------------------------------------------------------

   total number of primitive shells          :   88
   total number of contracted shells         :  120
   total number of cartesian basis functions :  291
   total number of SCF-basis functions       :  272


 residuum convergence criterium   :  0.10E-04


 integral neglect threshold       :  0.11E-10
 integral storage threshold THIZE :  0.10E-04
 integral storage threshold THIME :         5

 
             FOUND RI-J FLAG !
 
  
 AUXILIARY BASIS SET information:

              we will work with the 1s 3p 5d 7f 9g ... basis set
              ...i.e. with spherical basis functions...

   type   atoms  prim   cont   basis
   ---------------------------------------------------------------------------
    o        2     70     49   def2-SV(P)   [6s4p3d1f1g|12s5p4d2f1g]
    c       10     70     49   def2-SV(P)   [6s4p3d1f1g|12s5p4d2f1g]
    s        2     77     51   def2-SV(P)   [8s4p3d1f1g|14s5p5d2f1g]
    n        2     70     49   def2-SV(P)   [6s4p3d1f1g|12s5p4d2f1g]
    h        4     16     11   def2-SV(P)   [3s1p1d|5s2p1d]
    br       1     89     58   def2-SV(P)   [8s4p3d2f1g|19s5p5d3f1g]
   ---------------------------------------------------------------------------
   total:   21   1287    890
   ---------------------------------------------------------------------------

   total number of primitive shells          :  140
   total number of contracted shells         :  282
   total number of cartesian basis functions : 1101
   total number of SCF-basis functions       :  890

 RPA SINGLET-EXCITATION-CALCULATION 
 
             FOUND DFT-FLAG !
 

 symmetry group of the molecule :   c1 

 the group has the following generators :
   c1(z)

    1 symmetry operations found

 there are 1 real representations :   a   

 maximum number of shells which are related by symmetry :  1

 IRREP of excited state :   a   
 

 determining totally symmetric integral contributions 
    - equivalent to irreducible tensor elements - 
 which can be formed within each triple of representations :

             representation triple      contributions

              a     a     a               1

    mo occupation :
   irrep   mo's   occupied
    a      272       81
 
 number of basis functions   :                    272
 number of occupied orbitals :                     81
 
  
           ------------------
           density functional
           ------------------
 PBE0 hybrid functional
 exchange:    3/4 (LDA+PBE) + 1/4 HF
 correlation: LDA (PW) + PBE

 iterations will be done with small grid
  
 spherical integration : Lebedev's spherical grid
 spherical gridsize    :                     5
    i.e. gridpoints    :                   590
 value for diffuse not defined
 radial integration    : Chebyshev 2nd kind (scaling 3)
 radial gridsize       :                     8
 integration cells     :                    21
 partition function    : becke
 partition sharpness   :                     3
  
  
           ----------------------
               RI - INFORMATION
           ----------------------

 biggest AO integral is expected to be    21.668154127

 Threshold for integral neglect (rithr2):   0.11E-10
 Threshold for integral neglect (rithr1):   0.11E-10

 Contributions to RI integral batches: 
  neglected integral batches:                  2187
  direct contribution:                            0
  memory contribution:                  5073
 Core memory available (ricore)            5000 MiB
 Core memory needed for (P|Q) and Cholesky 7 MiB
 Core memory used for integrals            244 MiB
  
 ****************************************
 Memory allocated for RIDFT 250 MiB
 ****************************************
                                            
  MOs are in ASCII format !


 reading orbital data $scfmo  from file mos
 orbital characterization : scfconv=7
 preparing numerical integration ....
          Overall gridpoints after grid construction =        122144

 Calculating ground state density on molecular grid

 Integral of ground state density: N =   161.9999985006053    



 number of non-frozen orbitals          :   272
 number of non-frozen occupied orbitals :    81



                        -------------------
                         excitation vector 
                        -------------------


 dimension of super-tensorspace: 2

          IRREP   tensor space dimension   number of roots

           a             15471                   1

 maximum number of Davidson iterations set to   50


 machine precision: 2.22D-16


 logfile sing_a    will be constructed


                       Nonorthonormal Krylov Space Iteration


 total number of roots to be determined:   1


 maximum core memory set to   500 MB,
 corresponding to      379 vectors in CAO basis


 maximum number of simultaneously treated vectors (including degeneracy):        2


 Iteration IRREP Converged      Max. Euclidean
                 roots          residual norm

    1       a        0        3.003304589757111D-02
 
    2       a        0        1.559303226963629D-02
 
    3       a        0        7.385494503435465D-03
 
    4       a        0        8.055300000013679D-02
 
    5       a        0        3.524897571012823D-02
 
    6       a        0        1.297404636034803D-02
 
    7       a        0        6.037227721776692D-03
 
    8       a        0        2.340743094645621D-03
 
    9       a        0        1.258855525485595D-03
 
   10       a        0        5.990048808454550D-04
 
   11       a        0        2.538398071296951D-04
 
   12       a        0        1.149054957092022D-04
 
   13       a        0        4.038546573457405D-05
 
   14       a        0        1.963397110309927D-05
 
   15       a        1        7.376578501732514D-06
 

 converged!


 Switching to fine grid

 preparing numerical integration ....
          Overall gridpoints after grid construction =        372414

 Calculating ground state density on molecular grid

 Integral of ground state density: N =   161.9999985843447    



 Iteration IRREP Converged      Max. Euclidean
                 roots          residual norm

   16       a        0        1.038667118347128D-05
 

 NOTE: Residual norms are larger than 1.00D-05 due to mgrid option!

 Eigenpairs written on logfile sing_a   



 IRREP   Vector     Eigenvalue           Euclidean residual norm

  a         1    8.713587333428900D-02    1.038667118347128D-05
 




                    Selection rules for point group c1  


 Subduction with respect to c1  :

    Polar vector representation: a                           

    Axial vector representation: a                           

    Symmetric second rank tensor representation: a                           




                            Ground state


 Total energy:                           -4011.726413769000    

 Charge:

               elec          nuc         total

          -162.000000   161.000000    -1.000000


 Electric dipole moment:

               elec          nuc         total   

    x      837.627821  -831.810902     5.816919    Norm:              7.711769
    y     -484.815355   479.752272    -5.063083
    z       -0.080964     0.084784     0.003820    Norm / debye:     19.601509


 Electric quadrupole moment:

               elec          nuc         total   

   xx   -12246.959470 12054.936925  -192.022545
   yy    -2499.999409  2375.959581  -124.039828    1/3*trace:      -136.304524
   zz      -98.545430     5.694231   -92.851199
   xy     2621.962946 -2595.701935    26.261010
   xz        4.476613    -4.440741     0.035871    Anisotropy:       98.912075
   yz        2.769052    -2.729840     0.039212



 ==============================================================================

                              I R R E P   a   

 ==============================================================================


 Excitation is electric dipole allowed

 Excitation is magnetic dipole allowed

 Excitation is electric quadrupole allowed




                         1 singlet a excitation


 Total energy:                           -4011.639277895666    

 Excitation energy:                      0.8713587333428900E-01

 Excitation energy / eV:                  2.371088769918277    

 Excitation energy / nm:                  522.9000515688901    

 Excitation energy / cm^(-1):             19124.11362076506    


 Oscillator strength:

    velocity representation:             0.4271964454296528    

    length representation:               0.4855257890096569    

    mixed representation:                0.4554270535945636    


 Rotatory strength:

    velocity representation:            -0.3141182058460457E-06

    velocity rep. / 10^(-40)erg*cm^3:   -0.2029354901854443E-01

    length representation:               0.1074171078670003E-05

    length rep. / 10^(-40)erg*cm^3:      0.6939662532637907E-01


 Dominant contributions:

      occ. orbital   energy / eV   virt. orbital     energy / eV   |coeff.|^2*100
       81 a              -2.09          82 a               0.43       92.1
 

 Change of electron number:

            -0.000000


 Electric transition dipole moment (velocity rep.):

    x       -2.692028        Norm:                  2.711821
    y        0.327038
    z        0.000241        Norm / debye:          6.892812


 Electric transition dipole moment (length rep.):

    x       -2.869133        Norm:                  2.891035
    y        0.355183
    z        0.001047        Norm / debye:          7.348332


 Magnetic transition dipole moment / i:

    x        0.000000        Norm:                  0.001787
    y       -0.000001
    z        0.001787        Norm / Bohr mag.:      0.489884


 Electric quadrupole transition moment:

   xx       23.596781
   yy        2.540086        1/3*trace:             8.670517
   zz       -0.125315
   xy      -11.052635
   xz        0.000907        Anisotropy:           29.548191
   yz        0.002353
 

 Excited state no.    1 chosen for optimization


                       ----------------------
                        CPKS right-hand side 
                       ----------------------


          IRREP   tensor space dimension   number of roots

           a             15471                   1

                          ----------------
                           CPKS equations 
                          ----------------


 logfile dipl_a    will be constructed

 Switching to coarse grid

 preparing numerical integration ....
          Overall gridpoints after grid construction =        122144


                       Nonorthonormal Krylov Space Iteration


 total number of roots to be determined:   1


 maximum core memory set to   500 MB,
 corresponding to      754 vectors in CAO basis


 maximum number of simultaneously treated vectors (including degeneracy):        1


 Iteration IRREP Converged      Max. Euclidean
                 roots          residual norm

    1       a        0        1.068006400178379D-01
 
    2       a        0        4.951192531967589D-02
 
    3       a        0        2.046492192284417D-02
 
    4       a        0        8.135399692149787D-03
 
    5       a        0        3.422574999507602D-03
 
    6       a        0        9.752861166589696D-04
 
    7       a        0        3.978959631468134D-04
 
    8       a        0        1.416446762903377D-04
 
    9       a        0        6.033888536424523D-05
 
   10       a        0        1.647354804442913D-05
 
   11       a        1        6.941659097776073D-06
 

 converged!


 Switching to fine grid

 preparing numerical integration ....
          Overall gridpoints after grid construction =        372414

 Iteration IRREP Converged      Max. Euclidean
                 roots          residual norm

   12       a        0        1.598904991313555D-05
 

 NOTE: Residual norms are larger than 1.00D-05 due to mgrid option!

 Eigenpairs written on logfile dipl_a   



 IRREP   Vector     Frequency            Euclidean residual norm

  a         1    0.000000000000000D+00    1.598904991313555D-05
 

                          -------------------
                           relaxed densities 
                          -------------------


    ----------------------------------------
     S+T+V CONTRIBUTIONS TO ENERGY GRADIENT 
    ----------------------------------------

 1e-integral 1st. derivatives will be neglected if expon. factor < 0.100000E-10


    -----------------------------------------------
     TWO ELECTRON CONTRIBUTIONS TO ENERGY GRADIENT 
    -----------------------------------------------

 setting up bound for integral derivative estimation

 increment for numerical differentiation : 0.00050000

 biggest AO integral is expected to be    21.668154127
 biggest cartesian 1st derivative AO integral is expected to be    83.347447328

 biggest 1-particle AO density matrix element is expected to be    3.2085585717

 core memory to be involved in 2e-gradient :
   symmetry shell pair data              :         1
   two particle density+dens. estimates  :      8556
   derivative integrals                  :      8498
   derivative integral bound             :     21780
   totally                               :     30276


 setting up bound for integral derivative estimation

 increment for numerical differentiation : 0.00050000

 biggest AO integral is expected to be    21.668154127
 biggest cartesian 1st derivative AO integral is expected to be    83.347447328

 2e-integral 1st. derivatives will be neglected if expon. factor < 0.100000E-06
 outer boundary for 2e-integral derivative neglection is 0.161893E-08

 Integrated ground state density     :   161.9999985843432    


          ------------------------------------------------
           cartesian gradient of the energy (hartree/bohr)
          ------------------------------------------------

  ATOM      1 o           2 c           3 c           4 c           5 c 
dE/dx  0.1566600D-02 -0.2430839D-02  0.5709237D-03 -0.4637793D-03 -0.7714149D-03
dE/dy -0.5429330D-04 -0.2657106D-02  0.2824559D-02 -0.2529020D-02  0.1029667D-03
dE/dz  0.1492570D-03 -0.5354350D-03  0.5867494D-03 -0.7138301D-03  0.6838637D-03

  ATOM      6 c           7 c           8 s           9 c          10 n 
dE/dx  0.1971465D-02 -0.1378694D-02  0.1590713D-02 -0.1255582D-02  0.1111194D-02
dE/dy -0.5527635D-03  0.6853845D-03  0.1551798D-02 -0.2593991D-02  0.1726596D-02
dE/dz -0.5136788D-03  0.3091504D-03  0.2070278D-03 -0.2134214D-03  0.9162197D-04

  ATOM     11 c          12 s          13 n          14 c          15 c 
dE/dx -0.1425188D-02 -0.7111002D-03  0.4421159D-02 -0.3259533D-02  0.1097507D-02
dE/dy -0.1264667D-02  0.5415968D-03  0.5903905D-03  0.6503899D-04  0.1406378D-02
dE/dz -0.1947478D-03  0.2053958D-03  0.4917672D-04  0.1508690D-03  0.1585355D-02

  ATOM     16 h          17 h          18 o          19 h          20 br
dE/dx -0.6598639D-03  0.6408624D-03 -0.5259556D-03  0.2519503D-03 -0.2105649D-03
dE/dy  0.8958836D-04 -0.4995729D-03 -0.3672231D-03  0.2216764D-03 -0.7765276D-04
dE/dz -0.8010883D-03 -0.9467144D-03 -0.7441888D-04 -0.8648608D-04  0.9790574D-05

  ATOM     21 h 
dE/dx -0.1452734D-03
dE/dy  0.7873266D-03
dE/dz  0.5177591D-04
 
 resulting FORCE  (fx,fy,fz) = (-.154D-04,-.299D-05,0.213D-06)
 resulting MOMENT (mx,my,mz) = (0.748D-06,-.163D-06,-.367D-04)


 **********************************************************************
  |maximum component of gradient| : 0.44211593E-02  (atom 13 n )       
   gradient norm                  : 0.10083840E-01
 **********************************************************************

 exx =      -0.002609 eyy =      -0.004291 ezz =       0.000258
 eyz =       0.001039 exz =      -0.002222 exy =       0.008279


 <getgrd> : data group $grad  is missing 

   ***  cartesian gradients written onto <gradient>  ***
 
 
 
 ==============================================================================
                           electrostatic moments
 ==============================================================================

 reference point for electrostatic moments:    0.00000   0.00000   0.00000

 
              nuc           gs,e       ->  gs,tot          excit     ->  total
 ------------------------------------------------------------------------------
                          charge      
 ------------------------------------------------------------------------------
         161.000000    -162.000000      -1.000000      -0.000000      -1.000000
 
 ------------------------------------------------------------------------------
                       dipole moment  
 ------------------------------------------------------------------------------
   x    -831.810902     837.627821       5.816919      -0.940012       4.876907
   y     479.752272    -484.815355      -5.063083       0.856438      -4.206645
   z       0.084784      -0.080964       0.003820      -0.001220       0.002600
 
   | dipole moment | =     6.4405 a.u. =    16.3701 debye 
 
 ------------------------------------------------------------------------------
                     quadrupole moment
 ------------------------------------------------------------------------------
  xx   12054.936925  -12246.959470    -192.022545       1.064477    -190.958068
  yy    2375.959581   -2499.999409    -124.039828       7.403577    -116.636251
  zz       5.694231     -98.545430     -92.851199       0.111584     -92.739615
  xy   -2595.701935    2621.962946      26.261010      -8.549697      17.711313
  xz      -4.440741       4.476613       0.035871       0.016301       0.052172
  yz      -2.729840       2.769052       0.039212      -0.007990       0.031223
 
     1/3  trace=    -133.444644
     anisotropy=      93.871753
 
 ==============================================================================
 


    ------------------------------------------------------------------------
         total  cpu-time :  5 minutes and 52 seconds
         total wall-time :  5 minutes and 52 seconds
    ------------------------------------------------------------------------

   ****  egrad : all done  ****


    2018-02-09 13:36:22.925 

$dipole from egrad
  x     4.87690671063865    y    -4.20664509429929    z     0.00259981588704    a.u.
   | dipole | =   16.3702514369  debye
/work/bdnguye2/luc_project/5_brluc/ex_geo_opt/save/numforce/KraftWerk/p014
