 operating system is UNIX !

 ridft (missouri) : TURBOMOLE V7.2 ( 21454 ) 4 Oct 2017 at 12:48:15
 Copyright (C) 2017 TURBOMOLE GmbH, Karlsruhe


    2018-02-09 13:50:30.175 



                                  r i d f t

                        DFT program with RI approximation 
                                for coulomb part 




                                                 
                                 References:     
                                                 
          TURBOMOLE:                             
              R. Ahlrichs, M. Baer, M. Haeser, H. Horn, and
              C. Koelmel
              Electronic structure calculations on workstation
              computers: the program system TURBOMOLE
              Chem. Phys. Lett. 162: 165 (1989)
          Density Functional:                              
              O. Treutler and R. Ahlrichs                      
              Efficient Molecular Numerical Integration Schemes
              J. Chem. Phys. 102: 346 (1995)                   
          Parallel Version:                                
              Performance of parallel TURBOMOLE for Density    
              Functional Calculations                          
              M. v. Arnim and R. Ahlrichs                      
              J. Comp. Chem. 19: 1746 (1998)                   
          RI-J Method:                                     
              Auxiliary Basis Sets to approximate Coulomb      
              Potentials                                       
              Chem. Phys. Lett. 240: 283 (1995)                
              K. Eichkorn, O. Treutler, H. Oehm, M. Haeser     
              and R. Ahlrichs                                  
              Chem. Phys. Lett. 242: 652 (1995)                
                                                           
              Auxiliary Basis Sets for Main Row Atoms and their
              Use to approximate Coulomb Potentials            
              K. Eichkorn, F. Weigend, O. Treutler and         
              R. Ahlrichs                                      
              Theo. Chem. Acc. 97: 119 (1997)                   
                                                           
              Accurate Coulomb-fitting basis sets for H to Rn 
              F. Weigend                                        
              Phys. Chem. Chem. Phys. 8: 1057 (2006)            
                                                           
          Multipole accelerated RI-J (MARI-J):             
              Fast evaluation of the Coulomb potential for     
              electron densities using multipole accelerated   
              resolution of identity approximation             
              M. Sierka, A. Hogekamp and R. Ahlrichs           
              J. Chem. Phys. 118: 9136 (2003)                  
          RI-JK Method:                                     
              A fully direct RI-HF algorithm: Implementation,
              optimised auxiliary basis sets, demonstration of
              accuracy and efficiency                         
              F. Weigend                                      
              Phys. Chem. Chem. Phys. 4: 4285 (2002)           
          Two-component HF and DFT with spin-orbit coupling:  
              Self-consistent treatment of spin-orbit         
              interactions with efficient Hartree-Fock and    
              density functional methods                      
              M. K. Armbruster, F. Weigend, C. van Wüllen and 
              W. Klopper                                      
              Phys. Chem. Chem. Phys. 10: 1748 (2008)         
          Relativistic all-electron 2c calculations           
              An efficient implementation of two-component    
              relativistic exact-decoupling methods for large 
              molecules                                       
              D. Peng, N. Middendorf, F. Weigend, M. Reiher   
              J. Chem. Phys. 138, 184105 (2013)               
                                         




              +--------------------------------------------------+
              |      general information about current run       |
              +--------------------------------------------------+

 
 PBE0 hybrid functional
 exchange:    3/4 (LDA+PBE) + 1/4 HF
 correlation: LDA (PW) + PBE
 A Hybrid-DFT calculation using the RI-J approximation will be carried out.
 Allocatable memory for RI due to $ricore (MB):                  5000


              +--------------------------------------------------+
              | Atomic coordinate, charge and isotop information |
              +--------------------------------------------------+

                    atomic coordinates            atom    charge  isotop
        -12.73585061    6.95902727   -0.00737582    o      8.000     0
        -10.81948862    5.61674966   -0.00182822    c      6.000     0
         -8.29645307    6.76399852   -0.01084183    c      6.000     0
         -6.11233591    5.27111334   -0.00321235    c      6.000     0
         -6.19992698    2.60765038    0.00007000    c      6.000     0
         -8.60277510    1.43703328    0.01073762    c      6.000     0
        -10.78484244    2.86735896    0.00142065    c      6.000     0
         -3.00622321    6.28899923   -0.00781829    s     16.000     0
         -2.04771562    3.10285804   -0.00527547    c      6.000     0
         -3.87285659    1.43034957    0.00788641    n      7.000     0
          0.62059673    2.59905325   -0.00570191    c      6.000     0
          1.57493107   -0.60657125    0.01056185    s     16.000     0
          2.37422007    4.34127675   -0.01241599    n      7.000     0
          4.77334630    3.38781436   -0.00482600    c      6.000     0
          4.81784196    0.45140420   -0.00141942    c      6.000     0
          5.84211148   -0.22024070    1.69063512    h      1.000     0
          5.84174919   -0.23611242   -1.68491204    h      1.000     0
          6.73188708    4.59069008   -0.00948824    o      8.000     0
         -8.23296700    8.82656830   -0.01952139    h      1.000     0
        -13.97549949    1.25032211    0.01461523    br    35.000     0
         -8.69249729   -0.62834132    0.01638275    h      1.000     0
 
       center of nuclear mass  :   -5.47633309    2.94091841    0.00205504
       center of nuclear charge:   -5.16594684    2.98044300    0.00165300

              +--------------------------------------------------+
              |               basis set information              |
              +--------------------------------------------------+

              we will work with the 1s 3p 5d 7f 9g ... basis set
              ...i.e. with spherical basis functions...

   type   atoms  prim   cont   basis
   ---------------------------------------------------------------------------
    o        2     24     14   def2-SV(P)   [3s2p1d|7s4p1d]
    c       10     24     14   def2-SV(P)   [3s2p1d|7s4p1d]
    s        2     36     18   def2-SV(P)   [4s3p1d|10s7p1d]
    n        2     24     14   def2-SV(P)   [3s2p1d|7s4p1d]
    h        4      4      2   def2-SV(P)   [2s|4s]
    br       1     74     32   def2-SV(P)   [5s4p3d|14s10p6d]
   ---------------------------------------------------------------------------
   total:   21    498    272
   ---------------------------------------------------------------------------

   total number of primitive shells          :   88
   total number of contracted shells         :  120
   total number of cartesian basis functions :  291
   total number of SCF-basis functions       :  272


 integral neglect threshold       :  0.11E-10
 integral storage threshold THIZE :  0.10E-04
 integral storage threshold THIME :         5

 RI-J AUXILIARY BASIS SET information:

              we will work with the 1s 3p 5d 7f 9g ... basis set
              ...i.e. with spherical basis functions...

   type   atoms  prim   cont   basis
   ---------------------------------------------------------------------------
    o        2     70     49   def2-SV(P)   [6s4p3d1f1g|12s5p4d2f1g]
    c       10     70     49   def2-SV(P)   [6s4p3d1f1g|12s5p4d2f1g]
    s        2     77     51   def2-SV(P)   [8s4p3d1f1g|14s5p5d2f1g]
    n        2     70     49   def2-SV(P)   [6s4p3d1f1g|12s5p4d2f1g]
    h        4     16     11   def2-SV(P)   [3s1p1d|5s2p1d]
    br       1     89     58   def2-SV(P)   [8s4p3d2f1g|19s5p5d3f1g]
   ---------------------------------------------------------------------------
   total:   21   1287    890
   ---------------------------------------------------------------------------

   total number of primitive shells          :  140
   total number of contracted shells         :  282
   total number of cartesian basis functions : 1101
   total number of SCF-basis functions       :  890


 symmetry group of the molecule :   c1 

 the group has the following generators :
   c1(z)

    1 symmetry operations found

 there are 1 real representations :   a   

 maximum number of shells which are related by symmetry :  1


    mo occupation :
   irrep   mo's   occupied
    a      272       81
 
 number of basis functions   :                    272
 number of occupied orbitals :                     81
 
  
           ------------------
           density functional
           ------------------
 PBE0 hybrid functional
 exchange:    3/4 (LDA+PBE) + 1/4 HF
 correlation: LDA (PW) + PBE

 iterations will be done with small grid
  
 spherical integration : Lebedev's spherical grid
 spherical gridsize    :                     5
    i.e. gridpoints    :                   590
 value for diffuse not defined
 radial integration    : Chebyshev 2nd kind (scaling 3)
 radial gridsize       :                     8
 integration cells     :                    21
 partition function    : becke
 partition sharpness   :                     3
  

 biggest AO integral is expected to be    21.668154127
  
           ------------------------
               RI-J - INFORMATION
           ------------------------
 Contributions to RI integral batches: 
  neglected integral batches:                  2343
  direct contribution:                            0
  memory contribution:                  4917
 Memory core needed for (P|Q) and Cholesky      7 MByte
 Memory core minimum needed except of (P|Q)     1 MByte
 Total minimum memory core needed (sum)         7 MByte
  
 ****************************************
 Memory allocated for RI-J   243 MByte
 ****************************************
                                            

          ------------------------
          nuclear repulsion energy  :   1647.29533935    
          ------------------------


         -----------------
         -S,T+V- integrals
         -----------------

 1e-integrals will be neglected if expon. factor < 0.114844E-11
 
   Difference densities algorithm switched on.
   The maximal number of linear combinations of
   difference densities is                    20 .

 DIIS switched on: error vector is FDS-SDF
 Max. Iterations for DIIS is     :   4
 DIIS matrix (see manual) 
    Scaling factor of diagonals  :  1.200
    threshold for scaling factor :  0.000

 scf convergence criterion : increment of total energy < .1000000D-06
                  and increment of one-electron energy < .1000000D-03

  MOs are in ASCII format !


 automatic virtual orbital shift switched on 
      shift if e(lumo)-e(homo) < 0.10000000    


 reading orbital data $scfmo  from file mos
 orbital characterization : scfconv=7

 dump of DSCF restart information has been disabled !


 Starting SCF iterations

          Overall gridpoints after grid construction =        122148

 ITERATION  ENERGY          1e-ENERGY        2e-ENERGY     NORM[dD(SAO)]  TOL
   1  -4011.7270629904    -8855.0205631     3195.9981608    0.000D+00 0.115D-10
                            Exc = -172.720925437     Coul =  3424.37672309    
                            exK = -55.6576368926    
                              N = 161.99999782    
                            current damping = 0.700
 
          max. resid. norm for Fia-block=  4.860D-03 for orbital      1a         
          max. resid. fock norm         =  1.094D-02 for orbital      1a         

 ITERATION  ENERGY          1e-ENERGY        2e-ENERGY     NORM[dD(SAO)]  TOL
   2  -4011.7271187009    -8855.0355846     3196.0131266    0.359D-01 0.726D-11
                            Exc = -172.722066394      Eck =  3368.73519298    
                              N = 161.99999785    
                            current damping = 0.650
 
          Norm of current diis error: 0.84660E-02
          max. resid. norm for Fia-block=  2.003D-03 for orbital      1a         
          max. resid. fock norm         =  4.506D-03 for orbital      1a         

 ITERATION  ENERGY          1e-ENERGY        2e-ENERGY     NORM[dD(SAO)]  TOL
   3  -4011.7271295307    -8855.0303620     3196.0078931    0.560D-02 0.556D-11
                            Exc = -172.721280705      Eck =  3368.72917380    
                              N = 161.99999785    
                            current damping = 0.600
 
          Norm of current diis error: 0.46908E-02
          max. resid. norm for Fia-block=  7.892D-04 for orbital      1a         
          max. resid. fock norm         =  1.775D-03 for orbital      1a         

 ITERATION  ENERGY          1e-ENERGY        2e-ENERGY     NORM[dD(SAO)]  TOL
   4  -4011.7271328939    -8855.0321949     3196.0097227    0.216D-02 0.519D-11
                            Exc = -172.721819396      Eck =  3368.73154208    
                              N = 161.99999788    
                            current damping = 0.650
 
          Norm of current diis error: 0.22496E-02
          max. resid. norm for Fia-block=  2.960D-04 for orbital      1a         
          max. resid. fock norm         =  6.657D-04 for orbital      1a         

 ITERATION  ENERGY          1e-ENERGY        2e-ENERGY     NORM[dD(SAO)]  TOL
   5  -4011.7271336601    -8855.0334874     3196.0110144    0.120D-02 0.496D-11
                            Exc = -172.721771469      Eck =  3368.73278586    
                              N = 161.99999787    
                            current damping = 0.500
 
          Norm of current diis error: 0.93403E-03
          max. resid. norm for Fia-block=  1.166D-04 for orbital      1a         
          max. resid. fock norm         =  2.622D-04 for orbital      1a         
          mo-orthogonalization: Cholesky decomposition

 ITERATION  ENERGY          1e-ENERGY        2e-ENERGY     NORM[dD(SAO)]  TOL
   6  -4011.7271340469    -8855.0333969     3196.0109235    0.518D-03 0.483D-11
                            Exc = -172.721664919      Eck =  3368.73258842    
                              N = 161.99999789    
                            current damping = 0.550
 
          Norm of current diis error: 0.41820E-03
          max. resid. norm for Fia-block=  4.033D-05 for orbital     80a         
          max. resid. fock norm         =  8.741D-05 for orbital      1a         

 ITERATION  ENERGY          1e-ENERGY        2e-ENERGY     NORM[dD(SAO)]  TOL
   7  -4011.7271340728    -8855.0326269     3196.0101534    0.219D-03 0.474D-11
                            Exc = -172.721731535      Eck =  3368.73188498    
                              N = 161.99999789    
                            current damping = 0.400
 
          Norm of current diis error: 0.22333E-03
          max. resid. norm for Fia-block=  1.651D-05 for orbital     81a         
          max. resid. fock norm         =  3.102D-05 for orbital      1a         

 ITERATION  ENERGY          1e-ENERGY        2e-ENERGY     NORM[dD(SAO)]  TOL
   8  -4011.7271340796    -8855.0332358     3196.0107624    0.664D-04 0.468D-11
                            Exc = -172.721718823      Eck =  3368.73248118    
                              N = 161.99999789    
                            current damping = 0.450
 
          Norm of current diis error: 0.10888E-03
          max. resid. norm for Fia-block=  7.133D-06 for orbital     81a         
          max. resid. fock norm         =  1.557D-05 for orbital    241a         

 ENERGY CONVERGED !

          Overall gridpoints after grid construction =        372397

 ITERATION  ENERGY          1e-ENERGY        2e-ENERGY     NORM[dD(SAO)]  TOL
   9  -4011.7271371841    -8855.0331072     3196.0106307    0.232D-04 0.461D-11
                            Exc = -172.721703826      Eck =  3368.73233449    
                              N = 161.99999848    
                            current damping = 0.500
 
          Norm of current diis error: 0.79585E-04
          max. resid. norm for Fia-block=  4.216D-06 for orbital     81a         
          max. resid. fock norm         =  6.534D-06 for orbital    223a         

 End of SCF iterations

   convergence criteria satisfied after     9 iterations


                  ------------------------------------------ 
                 |  total energy      =  -4011.72713718408  |
                  ------------------------------------------ 
                 :  kinetic energy    =   4002.30563999186  :
                 :  potential energy  =  -8014.03277717593  :
                 :  virial theorem    =      1.99765151097  :
                 :  wavefunction norm =      1.00000000000  :
                  .......................................... 


 <geterg> : there is no data group $energy 


 orbitals $scfmo  will be written to file mos

    irrep                 77a         78a         79a         80a         81a   
 eigenvalues H         -0.17285    -0.16408    -0.12841    -0.12010    -0.07691
            eV          -4.7036     -4.4650     -3.4941     -3.2680     -2.0929
 occupation              2.0000      2.0000      2.0000      2.0000      2.0000 

    irrep                 82a         83a         84a         85a         86a   
 eigenvalues H          0.01615     0.10609     0.11819     0.12801     0.13179
            eV           0.4394      2.8868      3.2160      3.4834      3.5862
 
 
 
 
 ==============================================================================
                           electrostatic moments
 ==============================================================================

 reference point for electrostatic moments:    0.00000   0.00000   0.00000

 
              nuc           elec       ->  total
 ------------------------------------------------------------------------------
                          charge      
 ------------------------------------------------------------------------------
         161.000000    -162.000000      -1.000000
 
 ------------------------------------------------------------------------------
                       dipole moment  
 ------------------------------------------------------------------------------
   x    -831.717441     837.498871       5.781431
   y     479.851322    -484.893659      -5.042337
   z       0.266133      -0.260124       0.006010
 
   | dipole moment | =     7.6714 a.u. =    19.4987 debye 
 
 ------------------------------------------------------------------------------
                     quadrupole moment
 ------------------------------------------------------------------------------
  xx   12052.030734  -12243.714229    -191.683496
  yy    2375.510351   -2499.441720    -123.931369
  zz       5.712739     -98.554828     -92.842089
  xy   -2597.398885    2623.485437      26.086553
  xz      -6.642264       6.644603       0.002339
  yz      -2.238352       2.293016       0.054664
 
     1/3  trace=    -136.152318
     anisotropy=      98.512905
 
 ==============================================================================
 


    ------------------------------------------------------------------------
         total  cpu-time :  1 minutes and 12 seconds
         total wall-time :  1 minutes and 12 seconds
    ------------------------------------------------------------------------

   ****  ridft : all done  ****


    2018-02-09 13:51:42.506 


 egrad (missouri) : TURBOMOLE V7.2 ( 21454 ) 4 Oct 2017 at 12:24:43
 Copyright (C) 2017 TURBOMOLE GmbH, Karlsruhe


    2018-02-09 13:51:42.528 




                               e g r a d

                             TURBOMOLE GmbH


             integral direct evaluation of excited state
                     and polarizability gradients
                 and first-order nonadiabatic couplings



          references (see also programs escf, dscf and ridft) 

          review 
          F. Furche and D. Rappoport,  
          "Density functional methods for excited states: 
          equilibrium structure and electronic spectra",
          ch. III of "Computational Photochemistry", ed. by 
          M. Olivucci, vol. 16 of "Theoretical and Computational 
          Chemistry", Elsevier, Amsterdam, 2005.

          nonorthonormal Krylov space methods 
          F. Furche, B. T. Krull, B. D. Nguyen, J. Kwon, 
          J. Chem. Phys. 144 (2016), 174105.

          RI-J method 
          D. Rappoport and F. Furche, 
          J. Chem. Phys. 122 (2005), 064105.

          Lagrangian method, implementation, benchmarks 
          F. Furche and R. Ahlrichs,
          J. Chem. Phys. 117 (2002), 7433;
          J. Chem. Phys. 121 (2004), 12772 (E).

          Polarizability derivatives, Raman intensities 
          D. Rappoport and F. Furche, 
          J. Chem. Phys. 126 (2007), 201104.

          First-order nonadiabatic couplings 
          R. Send and F. Furche, 
          J. Chem. Phys. 132 (2010), 044107.
                                     




              +--------------------------------------------------+
              | Atomic coordinate, charge and isotop information |
              +--------------------------------------------------+

                    atomic coordinates            atom    charge  isotop
        -12.73585061    6.95902727   -0.00737582    o      8.000     0
        -10.81948862    5.61674966   -0.00182822    c      6.000     0
         -8.29645307    6.76399852   -0.01084183    c      6.000     0
         -6.11233591    5.27111334   -0.00321235    c      6.000     0
         -6.19992698    2.60765038    0.00007000    c      6.000     0
         -8.60277510    1.43703328    0.01073762    c      6.000     0
        -10.78484244    2.86735896    0.00142065    c      6.000     0
         -3.00622321    6.28899923   -0.00781829    s     16.000     0
         -2.04771562    3.10285804   -0.00527547    c      6.000     0
         -3.87285659    1.43034957    0.00788641    n      7.000     0
          0.62059673    2.59905325   -0.00570191    c      6.000     0
          1.57493107   -0.60657125    0.01056185    s     16.000     0
          2.37422007    4.34127675   -0.01241599    n      7.000     0
          4.77334630    3.38781436   -0.00482600    c      6.000     0
          4.81784196    0.45140420   -0.00141942    c      6.000     0
          5.84211148   -0.22024070    1.69063512    h      1.000     0
          5.84174919   -0.23611242   -1.68491204    h      1.000     0
          6.73188708    4.59069008   -0.00948824    o      8.000     0
         -8.23296700    8.82656830   -0.01952139    h      1.000     0
        -13.97549949    1.25032211    0.01461523    br    35.000     0
         -8.69249729   -0.62834132    0.01638275    h      1.000     0
 
       center of nuclear mass  :   -5.47633309    2.94091841    0.00205504
       center of nuclear charge:   -5.16594684    2.98044300    0.00165300

              +--------------------------------------------------+
              |               basis set information              |
              +--------------------------------------------------+

              we will work with the 1s 3p 5d 7f 9g ... basis set
              ...i.e. with spherical basis functions...

   type   atoms  prim   cont   basis
   ---------------------------------------------------------------------------
    o        2     24     14   def2-SV(P)   [3s2p1d|7s4p1d]
    c       10     24     14   def2-SV(P)   [3s2p1d|7s4p1d]
    s        2     36     18   def2-SV(P)   [4s3p1d|10s7p1d]
    n        2     24     14   def2-SV(P)   [3s2p1d|7s4p1d]
    h        4      4      2   def2-SV(P)   [2s|4s]
    br       1     74     32   def2-SV(P)   [5s4p3d|14s10p6d]
   ---------------------------------------------------------------------------
   total:   21    498    272
   ---------------------------------------------------------------------------

   total number of primitive shells          :   88
   total number of contracted shells         :  120
   total number of cartesian basis functions :  291
   total number of SCF-basis functions       :  272


 residuum convergence criterium   :  0.10E-04


 integral neglect threshold       :  0.11E-10
 integral storage threshold THIZE :  0.10E-04
 integral storage threshold THIME :         5

 
             FOUND RI-J FLAG !
 
  
 AUXILIARY BASIS SET information:

              we will work with the 1s 3p 5d 7f 9g ... basis set
              ...i.e. with spherical basis functions...

   type   atoms  prim   cont   basis
   ---------------------------------------------------------------------------
    o        2     70     49   def2-SV(P)   [6s4p3d1f1g|12s5p4d2f1g]
    c       10     70     49   def2-SV(P)   [6s4p3d1f1g|12s5p4d2f1g]
    s        2     77     51   def2-SV(P)   [8s4p3d1f1g|14s5p5d2f1g]
    n        2     70     49   def2-SV(P)   [6s4p3d1f1g|12s5p4d2f1g]
    h        4     16     11   def2-SV(P)   [3s1p1d|5s2p1d]
    br       1     89     58   def2-SV(P)   [8s4p3d2f1g|19s5p5d3f1g]
   ---------------------------------------------------------------------------
   total:   21   1287    890
   ---------------------------------------------------------------------------

   total number of primitive shells          :  140
   total number of contracted shells         :  282
   total number of cartesian basis functions : 1101
   total number of SCF-basis functions       :  890

 RPA SINGLET-EXCITATION-CALCULATION 
 
             FOUND DFT-FLAG !
 

 symmetry group of the molecule :   c1 

 the group has the following generators :
   c1(z)

    1 symmetry operations found

 there are 1 real representations :   a   

 maximum number of shells which are related by symmetry :  1

 IRREP of excited state :   a   
 

 determining totally symmetric integral contributions 
    - equivalent to irreducible tensor elements - 
 which can be formed within each triple of representations :

             representation triple      contributions

              a     a     a               1

    mo occupation :
   irrep   mo's   occupied
    a      272       81
 
 number of basis functions   :                    272
 number of occupied orbitals :                     81
 
  
           ------------------
           density functional
           ------------------
 PBE0 hybrid functional
 exchange:    3/4 (LDA+PBE) + 1/4 HF
 correlation: LDA (PW) + PBE

 iterations will be done with small grid
  
 spherical integration : Lebedev's spherical grid
 spherical gridsize    :                     5
    i.e. gridpoints    :                   590
 value for diffuse not defined
 radial integration    : Chebyshev 2nd kind (scaling 3)
 radial gridsize       :                     8
 integration cells     :                    21
 partition function    : becke
 partition sharpness   :                     3
  
  
           ----------------------
               RI - INFORMATION
           ----------------------

 biggest AO integral is expected to be    21.668154127

 Threshold for integral neglect (rithr2):   0.11E-10
 Threshold for integral neglect (rithr1):   0.11E-10

 Contributions to RI integral batches: 
  neglected integral batches:                  2186
  direct contribution:                            0
  memory contribution:                  5074
 Core memory available (ricore)            5000 MiB
 Core memory needed for (P|Q) and Cholesky 7 MiB
 Core memory used for integrals            244 MiB
  
 ****************************************
 Memory allocated for RIDFT 250 MiB
 ****************************************
                                            
  MOs are in ASCII format !


 reading orbital data $scfmo  from file mos
 orbital characterization : scfconv=7
 preparing numerical integration ....
          Overall gridpoints after grid construction =        122148

 Calculating ground state density on molecular grid

 Integral of ground state density: N =   161.9999978909977    



 number of non-frozen orbitals          :   272
 number of non-frozen occupied orbitals :    81



                        -------------------
                         excitation vector 
                        -------------------


 dimension of super-tensorspace: 2

          IRREP   tensor space dimension   number of roots

           a             15471                   1

 maximum number of Davidson iterations set to   50


 machine precision: 2.22D-16


 logfile sing_a    will be constructed


                       Nonorthonormal Krylov Space Iteration


 total number of roots to be determined:   1


 maximum core memory set to   500 MB,
 corresponding to      379 vectors in CAO basis


 maximum number of simultaneously treated vectors (including degeneracy):        2


 Iteration IRREP Converged      Max. Euclidean
                 roots          residual norm

    1       a        0        3.035869841441833D-02
 
    2       a        0        1.596151336300968D-02
 
    3       a        0        1.028873458757196D-02
 
    4       a        0        6.932212269559342D-02
 
    5       a        0        2.850954133638135D-02
 
    6       a        0        1.027682069245590D-02
 
    7       a        0        4.638397195338055D-03
 
    8       a        0        1.872306754780576D-03
 
    9       a        0        1.049567387650186D-03
 
   10       a        0        5.200177806179436D-04
 
   11       a        0        2.166320933754285D-04
 
   12       a        0        1.062257355798649D-04
 
   13       a        0        3.564088373240650D-05
 
   14       a        0        1.754347037167141D-05
 
   15       a        1        6.492575645659390D-06
 

 converged!


 Switching to fine grid

 preparing numerical integration ....
          Overall gridpoints after grid construction =        372397

 Calculating ground state density on molecular grid

 Integral of ground state density: N =   161.9999984804324    



 Iteration IRREP Converged      Max. Euclidean
                 roots          residual norm

   16       a        1        9.753090675970963D-06
 

 converged!

 Eigenpairs written on logfile sing_a   



 IRREP   Vector     Eigenvalue           Euclidean residual norm

  a         1    8.787535945721001D-02    9.753090675970963D-06
 




                    Selection rules for point group c1  


 Subduction with respect to c1  :

    Polar vector representation: a                           

    Axial vector representation: a                           

    Symmetric second rank tensor representation: a                           




                            Ground state


 Total energy:                           -4011.727137184000    

 Charge:

               elec          nuc         total

          -162.000000   161.000000    -1.000000


 Electric dipole moment:

               elec          nuc         total   

    x      837.498871  -831.717441     5.781431    Norm:              7.671384
    y     -484.893659   479.851322    -5.042337
    z       -0.260124     0.266133     0.006010    Norm / debye:     19.498862


 Electric quadrupole moment:

               elec          nuc         total   

   xx   -12243.714229 12052.030734  -191.683496
   yy    -2499.441720  2375.510351  -123.931369    1/3*trace:      -136.152318
   zz      -98.554828     5.712739   -92.842089
   xy     2623.485437 -2597.398885    26.086553
   xz        6.644603    -6.642264     0.002339    Anisotropy:       98.512905
   yz        2.293016    -2.238352     0.054664



 ==============================================================================

                              I R R E P   a   

 ==============================================================================


 Excitation is electric dipole allowed

 Excitation is magnetic dipole allowed

 Excitation is electric quadrupole allowed




                         1 singlet a excitation


 Total energy:                           -4011.639261824543    

 Excitation energy:                      0.8787535945721001E-01

 Excitation energy / eV:                  2.391211219771298    

 Excitation energy / nm:                  518.4997585379620    

 Excitation energy / cm^(-1):             19286.41206450092    


 Oscillator strength:

    velocity representation:             0.4366695192187599    

    length representation:               0.4954397836255190    

    mixed representation:                0.4651262549326745    


 Rotatory strength:

    velocity representation:             0.1825264452831736E-05

    velocity rep. / 10^(-40)erg*cm^3:    0.1179208748680487    

    length representation:               0.2325995957481571E-06

    length rep. / 10^(-40)erg*cm^3:      0.1502705417947766E-01


 Dominant contributions:

      occ. orbital   energy / eV   virt. orbital     energy / eV   |coeff.|^2*100
       81 a              -2.09          82 a               0.44       92.2
 

 Change of electron number:

            -0.000000


 Electric transition dipole moment (velocity rep.):

    x       -2.710401        Norm:                  2.730163
    y        0.327889
    z        0.001418        Norm / debye:          6.939434


 Electric transition dipole moment (length rep.):

    x       -2.886283        Norm:                  2.908088
    y        0.355454
    z        0.000574        Norm / debye:          7.391678


 Magnetic transition dipole moment / i:

    x        0.000001        Norm:                  0.001850
    y        0.000003
    z        0.001850        Norm / Bohr mag.:      0.507072


 Electric quadrupole transition moment:

   xx       23.695551
   yy        2.544248        1/3*trace:             8.704625
   zz       -0.125925
   xy      -11.119039
   xz        0.000379        Anisotropy:           29.696534
   yz       -0.000089
 

 Excited state no.    1 chosen for optimization


                       ----------------------
                        CPKS right-hand side 
                       ----------------------


          IRREP   tensor space dimension   number of roots

           a             15471                   1

                          ----------------
                           CPKS equations 
                          ----------------


 logfile dipl_a    will be constructed

 Switching to coarse grid

 preparing numerical integration ....
          Overall gridpoints after grid construction =        122148


                       Nonorthonormal Krylov Space Iteration


 total number of roots to be determined:   1


 maximum core memory set to   500 MB,
 corresponding to      754 vectors in CAO basis


 maximum number of simultaneously treated vectors (including degeneracy):        1


 Iteration IRREP Converged      Max. Euclidean
                 roots          residual norm

    1       a        0        1.051619412132868D-01
 
    2       a        0        4.870534604632213D-02
 
    3       a        0        2.013765069407533D-02
 
    4       a        0        7.987239744730026D-03
 
    5       a        0        3.360324079742235D-03
 
    6       a        0        9.557214811505431D-04
 
    7       a        0        3.876381056980642D-04
 
    8       a        0        1.397491299104649D-04
 
    9       a        0        5.894233066526503D-05
 
   10       a        0        1.622746613233541D-05
 
   11       a        1        6.833943032039572D-06
 

 converged!


 Switching to fine grid

 preparing numerical integration ....
          Overall gridpoints after grid construction =        372397

 Iteration IRREP Converged      Max. Euclidean
                 roots          residual norm

   12       a        0        1.584578058621410D-05
 

 NOTE: Residual norms are larger than 1.00D-05 due to mgrid option!

 Eigenpairs written on logfile dipl_a   



 IRREP   Vector     Frequency            Euclidean residual norm

  a         1    0.000000000000000D+00    1.584578058621410D-05
 

                          -------------------
                           relaxed densities 
                          -------------------


    ----------------------------------------
     S+T+V CONTRIBUTIONS TO ENERGY GRADIENT 
    ----------------------------------------

 1e-integral 1st. derivatives will be neglected if expon. factor < 0.100000E-10


    -----------------------------------------------
     TWO ELECTRON CONTRIBUTIONS TO ENERGY GRADIENT 
    -----------------------------------------------

 setting up bound for integral derivative estimation

 increment for numerical differentiation : 0.00050000

 biggest AO integral is expected to be    21.668154127
 biggest cartesian 1st derivative AO integral is expected to be    83.347447328

 biggest 1-particle AO density matrix element is expected to be    3.2085919763

 core memory to be involved in 2e-gradient :
   symmetry shell pair data              :         1
   two particle density+dens. estimates  :      8556
   derivative integrals                  :      8498
   derivative integral bound             :     21780
   totally                               :     30276


 setting up bound for integral derivative estimation

 increment for numerical differentiation : 0.00050000

 biggest AO integral is expected to be    21.668154127
 biggest cartesian 1st derivative AO integral is expected to be    83.347447328

 2e-integral 1st. derivatives will be neglected if expon. factor < 0.100000E-06
 outer boundary for 2e-integral derivative neglection is 0.161890E-08

 Integrated ground state density     :   161.9999984804307    


          ------------------------------------------------
           cartesian gradient of the energy (hartree/bohr)
          ------------------------------------------------

  ATOM      1 o           2 c           3 c           4 c           5 c 
dE/dx  0.1625057D-02 -0.4184809D-02  0.3438450D-02 -0.2451499D-02  0.4919230D-02
dE/dy  0.6960856D-04 -0.2291754D-02  0.2013741D-02 -0.3146980D-03  0.7328759D-03
dE/dz -0.2307314D-03  0.8251987D-03 -0.4054589D-03  0.4781475D-03 -0.9193642D-03

  ATOM      6 c           7 c           8 s           9 c          10 n 
dE/dx -0.4841126D-02  0.2962943D-02 -0.1323171D-03  0.2267092D-02 -0.2881981D-02
dE/dy  0.7715401D-03 -0.6043596D-03  0.5624730D-03 -0.8470383D-03  0.5535586D-03
dE/dz  0.6574878D-03 -0.6758699D-03  0.2149785D-03 -0.4526487D-03  0.5584798D-03

  ATOM     11 c          12 s          13 n          14 c          15 c 
dE/dx -0.4687621D-03 -0.5856546D-03  0.1518380D-02 -0.6008980D-03 -0.3342063D-03
dE/dy -0.2791023D-03  0.1443108D-02 -0.1574160D-02  0.2790175D-02 -0.1191950D-02
dE/dz -0.1216953D-03  0.2309937D-03 -0.1960134D-03  0.9254076D-03 -0.1319845D-02

  ATOM     16 h          17 h          18 o          19 h          20 br
dE/dx  0.3362130D-03  0.2070043D-03 -0.1040093D-02 -0.9469179D-04  0.6523198D-04
dE/dy  0.1358763D-03  0.1623059D-04 -0.8417373D-03 -0.6720089D-03  0.1732708D-03
dE/dz  0.8052275D-03 -0.1327962D-03 -0.2166014D-03 -0.1775697D-04  0.6696413D-04

  ATOM     21 h 
dE/dx  0.2613798D-03
dE/dy -0.6478359D-03
dE/dz -0.7407781D-04
 
 resulting FORCE  (fx,fy,fz) = (-.151D-04,-.219D-05,0.263D-07)
 resulting MOMENT (mx,my,mz) = (-.667D-05,-.544D-05,-.471D-04)


 **********************************************************************
  |maximum component of gradient| : 0.49192299E-02  (atom  5 c )       
   gradient norm                  : 0.12128414E-01
 **********************************************************************

 exx =      -0.011170 eyy =      -0.006164 ezz =       0.001604
 eyz =       0.000231 exz =       0.000105 exy =       0.012288


 <getgrd> : data group $grad  is missing 

   ***  cartesian gradients written onto <gradient>  ***
 
 
 
 ==============================================================================
                           electrostatic moments
 ==============================================================================

 reference point for electrostatic moments:    0.00000   0.00000   0.00000

 
              nuc           gs,e       ->  gs,tot          excit     ->  total
 ------------------------------------------------------------------------------
                          charge      
 ------------------------------------------------------------------------------
         161.000000    -162.000000      -1.000000      -0.000000      -1.000000
 
 ------------------------------------------------------------------------------
                       dipole moment  
 ------------------------------------------------------------------------------
   x    -831.717441     837.498871       5.781431      -0.923650       4.857781
   y     479.851322    -484.893659      -5.042337       0.850418      -4.191919
   z       0.266133      -0.260124       0.006010      -0.002282       0.003728
 
   | dipole moment | =     6.4164 a.u. =    16.3089 debye 
 
 ------------------------------------------------------------------------------
                     quadrupole moment
 ------------------------------------------------------------------------------
  xx   12052.030734  -12243.714229    -191.683496       0.969472    -190.714024
  yy    2375.510351   -2499.441720    -123.931369       7.353558    -116.577811
  zz       5.712739     -98.554828     -92.842089       0.110704     -92.731385
  xy   -2597.398885    2623.485437      26.086553      -8.468363      17.618189
  xz      -6.642264       6.644603       0.002339       0.021494       0.023833
  yz      -2.238352       2.293016       0.054664      -0.011970       0.042694
 
     1/3  trace=    -133.341073
     anisotropy=      93.615825
 
 ==============================================================================
 


    ------------------------------------------------------------------------
         total  cpu-time :  6 minutes and  0 seconds
         total wall-time :  6 minutes and  0 seconds
    ------------------------------------------------------------------------

   ****  egrad : all done  ****


    2018-02-09 13:57:42.230 

$dipole from egrad
  x     4.85778119179668    y    -4.19191893850478    z     0.00372795160332    a.u.
   | dipole | =   16.3089947039  debye
/work/bdnguye2/luc_project/5_brluc/ex_geo_opt/save/numforce/KraftWerk/p017
