 operating system is UNIX !

 ridft (missouri) : TURBOMOLE V7.2 ( 21454 ) 4 Oct 2017 at 12:48:15
 Copyright (C) 2017 TURBOMOLE GmbH, Karlsruhe


    2018-02-09 14:18:47.169 



                                  r i d f t

                        DFT program with RI approximation 
                                for coulomb part 




                                                 
                                 References:     
                                                 
          TURBOMOLE:                             
              R. Ahlrichs, M. Baer, M. Haeser, H. Horn, and
              C. Koelmel
              Electronic structure calculations on workstation
              computers: the program system TURBOMOLE
              Chem. Phys. Lett. 162: 165 (1989)
          Density Functional:                              
              O. Treutler and R. Ahlrichs                      
              Efficient Molecular Numerical Integration Schemes
              J. Chem. Phys. 102: 346 (1995)                   
          Parallel Version:                                
              Performance of parallel TURBOMOLE for Density    
              Functional Calculations                          
              M. v. Arnim and R. Ahlrichs                      
              J. Comp. Chem. 19: 1746 (1998)                   
          RI-J Method:                                     
              Auxiliary Basis Sets to approximate Coulomb      
              Potentials                                       
              Chem. Phys. Lett. 240: 283 (1995)                
              K. Eichkorn, O. Treutler, H. Oehm, M. Haeser     
              and R. Ahlrichs                                  
              Chem. Phys. Lett. 242: 652 (1995)                
                                                           
              Auxiliary Basis Sets for Main Row Atoms and their
              Use to approximate Coulomb Potentials            
              K. Eichkorn, F. Weigend, O. Treutler and         
              R. Ahlrichs                                      
              Theo. Chem. Acc. 97: 119 (1997)                   
                                                           
              Accurate Coulomb-fitting basis sets for H to Rn 
              F. Weigend                                        
              Phys. Chem. Chem. Phys. 8: 1057 (2006)            
                                                           
          Multipole accelerated RI-J (MARI-J):             
              Fast evaluation of the Coulomb potential for     
              electron densities using multipole accelerated   
              resolution of identity approximation             
              M. Sierka, A. Hogekamp and R. Ahlrichs           
              J. Chem. Phys. 118: 9136 (2003)                  
          RI-JK Method:                                     
              A fully direct RI-HF algorithm: Implementation,
              optimised auxiliary basis sets, demonstration of
              accuracy and efficiency                         
              F. Weigend                                      
              Phys. Chem. Chem. Phys. 4: 4285 (2002)           
          Two-component HF and DFT with spin-orbit coupling:  
              Self-consistent treatment of spin-orbit         
              interactions with efficient Hartree-Fock and    
              density functional methods                      
              M. K. Armbruster, F. Weigend, C. van Wüllen and 
              W. Klopper                                      
              Phys. Chem. Chem. Phys. 10: 1748 (2008)         
          Relativistic all-electron 2c calculations           
              An efficient implementation of two-component    
              relativistic exact-decoupling methods for large 
              molecules                                       
              D. Peng, N. Middendorf, F. Weigend, M. Reiher   
              J. Chem. Phys. 138, 184105 (2013)               
                                         




              +--------------------------------------------------+
              |      general information about current run       |
              +--------------------------------------------------+

 
 PBE0 hybrid functional
 exchange:    3/4 (LDA+PBE) + 1/4 HF
 correlation: LDA (PW) + PBE
 A Hybrid-DFT calculation using the RI-J approximation will be carried out.
 Allocatable memory for RI due to $ricore (MB):                  5000


              +--------------------------------------------------+
              | Atomic coordinate, charge and isotop information |
              +--------------------------------------------------+

                    atomic coordinates            atom    charge  isotop
        -12.73553585    6.95817197   -0.00970617    o      8.000     0
        -10.81817619    5.62093377   -0.00101337    c      6.000     0
         -8.29992721    6.75964209   -0.01105071    c      6.000     0
         -6.10582227    5.27584339   -0.00842066    c      6.000     0
         -6.20696277    2.60855755    0.00567550    c      6.000     0
         -8.59912633    1.43537012    0.00513388    c      6.000     0
        -10.78671250    2.87158346    0.00420670    c      6.000     0
         -3.00756490    6.28768141   -0.00816386    s     16.000     0
         -2.04797686    3.10248353   -0.00549111    c      6.000     0
         -3.87062120    1.43314252    0.00518159    n      7.000     0
          0.61533163    2.59939129   -0.00063797    c      6.000     0
          1.57871039   -0.60811739    0.00378778    s     16.000     0
          2.37092527    4.34759227   -0.00608293    n      7.000     0
          4.77078233    3.38203027   -0.00674645    c      6.000     0
          4.82041220    0.45564409   -0.00086125    c      6.000     0
          5.83865899   -0.22161723    1.69180698    h      1.000     0
          5.84037266   -0.23728427   -1.68435386    h      1.000     0
          6.73533958    4.59326033   -0.01372813    o      8.000     0
         -8.23875109    8.82848875   -0.01318833    h      1.000     0
        -13.97293552    1.24702731    0.00829972    br    35.000     0
         -8.69404343   -0.62156725    0.01638275    h      1.000     0
 
       center of nuclear mass  :   -5.47560471    2.94056349   -0.00025777
       center of nuclear charge:   -5.16532104    2.98020173   -0.00048383

              +--------------------------------------------------+
              |               basis set information              |
              +--------------------------------------------------+

              we will work with the 1s 3p 5d 7f 9g ... basis set
              ...i.e. with spherical basis functions...

   type   atoms  prim   cont   basis
   ---------------------------------------------------------------------------
    o        2     24     14   def2-SV(P)   [3s2p1d|7s4p1d]
    c       10     24     14   def2-SV(P)   [3s2p1d|7s4p1d]
    s        2     36     18   def2-SV(P)   [4s3p1d|10s7p1d]
    n        2     24     14   def2-SV(P)   [3s2p1d|7s4p1d]
    h        4      4      2   def2-SV(P)   [2s|4s]
    br       1     74     32   def2-SV(P)   [5s4p3d|14s10p6d]
   ---------------------------------------------------------------------------
   total:   21    498    272
   ---------------------------------------------------------------------------

   total number of primitive shells          :   88
   total number of contracted shells         :  120
   total number of cartesian basis functions :  291
   total number of SCF-basis functions       :  272


 integral neglect threshold       :  0.11E-10
 integral storage threshold THIZE :  0.10E-04
 integral storage threshold THIME :         5

 RI-J AUXILIARY BASIS SET information:

              we will work with the 1s 3p 5d 7f 9g ... basis set
              ...i.e. with spherical basis functions...

   type   atoms  prim   cont   basis
   ---------------------------------------------------------------------------
    o        2     70     49   def2-SV(P)   [6s4p3d1f1g|12s5p4d2f1g]
    c       10     70     49   def2-SV(P)   [6s4p3d1f1g|12s5p4d2f1g]
    s        2     77     51   def2-SV(P)   [8s4p3d1f1g|14s5p5d2f1g]
    n        2     70     49   def2-SV(P)   [6s4p3d1f1g|12s5p4d2f1g]
    h        4     16     11   def2-SV(P)   [3s1p1d|5s2p1d]
    br       1     89     58   def2-SV(P)   [8s4p3d2f1g|19s5p5d3f1g]
   ---------------------------------------------------------------------------
   total:   21   1287    890
   ---------------------------------------------------------------------------

   total number of primitive shells          :  140
   total number of contracted shells         :  282
   total number of cartesian basis functions : 1101
   total number of SCF-basis functions       :  890


 symmetry group of the molecule :   c1 

 the group has the following generators :
   c1(z)

    1 symmetry operations found

 there are 1 real representations :   a   

 maximum number of shells which are related by symmetry :  1


    mo occupation :
   irrep   mo's   occupied
    a      272       81
 
 number of basis functions   :                    272
 number of occupied orbitals :                     81
 
  
           ------------------
           density functional
           ------------------
 PBE0 hybrid functional
 exchange:    3/4 (LDA+PBE) + 1/4 HF
 correlation: LDA (PW) + PBE

 iterations will be done with small grid
  
 spherical integration : Lebedev's spherical grid
 spherical gridsize    :                     5
    i.e. gridpoints    :                   590
 value for diffuse not defined
 radial integration    : Chebyshev 2nd kind (scaling 3)
 radial gridsize       :                     8
 integration cells     :                    21
 partition function    : becke
 partition sharpness   :                     3
  

 biggest AO integral is expected to be    21.668154127
  
           ------------------------
               RI-J - INFORMATION
           ------------------------
 Contributions to RI integral batches: 
  neglected integral batches:                  2341
  direct contribution:                            0
  memory contribution:                  4919
 Memory core needed for (P|Q) and Cholesky      7 MByte
 Memory core minimum needed except of (P|Q)     1 MByte
 Total minimum memory core needed (sum)         7 MByte
  
 ****************************************
 Memory allocated for RI-J   243 MByte
 ****************************************
                                            

          ------------------------
          nuclear repulsion energy  :   1647.26027884    
          ------------------------


         -----------------
         -S,T+V- integrals
         -----------------

 1e-integrals will be neglected if expon. factor < 0.114844E-11
 
   Difference densities algorithm switched on.
   The maximal number of linear combinations of
   difference densities is                    20 .

 DIIS switched on: error vector is FDS-SDF
 Max. Iterations for DIIS is     :   4
 DIIS matrix (see manual) 
    Scaling factor of diagonals  :  1.200
    threshold for scaling factor :  0.000

 scf convergence criterion : increment of total energy < .1000000D-06
                  and increment of one-electron energy < .1000000D-03

  MOs are in ASCII format !


 automatic virtual orbital shift switched on 
      shift if e(lumo)-e(homo) < 0.10000000    


 reading orbital data $scfmo  from file mos
 orbital characterization : scfconv=7

 dump of DSCF restart information has been disabled !


 Starting SCF iterations

          Overall gridpoints after grid construction =        122147

 ITERATION  ENERGY          1e-ENERGY        2e-ENERGY     NORM[dD(SAO)]  TOL
   1  -4011.7267745047    -8854.9620725     3195.9750191    0.000D+00 0.115D-10
                            Exc = -172.720337178     Coul =  3424.35259347    
                            exK = -55.6572371681    
                              N = 161.99999713    
                            current damping = 0.700
 
          max. resid. norm for Fia-block=  5.485D-03 for orbital      1a         
          max. resid. fock norm         =  8.432D-03 for orbital      1a         

 ITERATION  ENERGY          1e-ENERGY        2e-ENERGY     NORM[dD(SAO)]  TOL
   2  -4011.7268383581    -8854.9601156     3195.9729984    0.250D-01 0.726D-11
                            Exc = -172.719696109      Eck =  3368.69269453    
                              N = 161.99999702    
                            current damping = 0.650
 
          Norm of current diis error: 0.97816E-02
          max. resid. norm for Fia-block=  2.259D-03 for orbital      1a         
          max. resid. fock norm         =  3.472D-03 for orbital      1a         

 ITERATION  ENERGY          1e-ENERGY        2e-ENERGY     NORM[dD(SAO)]  TOL
   3  -4011.7268494751    -8854.9530637     3195.9659354    0.747D-02 0.564D-11
                            Exc = -172.720131240      Eck =  3368.68606664    
                              N = 161.99999700    
                            current damping = 0.500
 
          Norm of current diis error: 0.60219E-02
          max. resid. norm for Fia-block=  8.900D-04 for orbital      1a         
          max. resid. fock norm         =  1.368D-03 for orbital      1a         

 ITERATION  ENERGY          1e-ENERGY        2e-ENERGY     NORM[dD(SAO)]  TOL
   4  -4011.7268545707    -8854.9583127     3195.9711793    0.250D-02 0.521D-11
                            Exc = -172.719867509      Eck =  3368.69104680    
                              N = 161.99999697    
                            current damping = 0.550
 
          Norm of current diis error: 0.22179E-02
          max. resid. norm for Fia-block=  2.967D-04 for orbital      1a         
          max. resid. fock norm         =  4.560D-04 for orbital      1a         

 ITERATION  ENERGY          1e-ENERGY        2e-ENERGY     NORM[dD(SAO)]  TOL
   5  -4011.7268553382    -8854.9563891     3195.9692549    0.904D-03 0.496D-11
                            Exc = -172.719861471      Eck =  3368.68911639    
                              N = 161.99999696    
                            current damping = 0.600
 
          Norm of current diis error: 0.72264E-03
          max. resid. norm for Fia-block=  1.053D-04 for orbital      1a         
          max. resid. fock norm         =  1.618D-04 for orbital      1a         
          mo-orthogonalization: Cholesky decomposition

 ITERATION  ENERGY          1e-ENERGY        2e-ENERGY     NORM[dD(SAO)]  TOL
   6  -4011.7268556580    -8854.9560555     3195.9689210    0.366D-03 0.484D-11
                            Exc = -172.719907797      Eck =  3368.68882884    
                              N = 161.99999698    
                            current damping = 0.450
 
          Norm of current diis error: 0.32433E-03
          max. resid. norm for Fia-block=  3.948D-05 for orbital      1a         
          max. resid. fock norm         =  6.160D-05 for orbital    196a         

 ENERGY CONVERGED !

          Overall gridpoints after grid construction =        372407

 ITERATION  ENERGY          1e-ENERGY        2e-ENERGY     NORM[dD(SAO)]  TOL
   7  -4011.7268587555    -8854.9561595     3195.9690219    0.166D-03 0.474D-11
                            Exc = -172.719899960      Eck =  3368.68892183    
                              N = 161.99999852    
                            current damping = 0.500
 
          Norm of current diis error: 0.18059E-03
          max. resid. norm for Fia-block=  1.307D-05 for orbital     81a         
          max. resid. fock norm         =  2.432D-05 for orbital    196a         

 End of SCF iterations

   convergence criteria satisfied after     7 iterations


                  ------------------------------------------ 
                 |  total energy      =  -4011.72685875551  |
                  ------------------------------------------ 
                 :  kinetic energy    =   4002.29525458215  :
                 :  potential energy  =  -8014.02211333766  :
                 :  virial theorem    =      1.99764899144  :
                 :  wavefunction norm =      1.00000000000  :
                  .......................................... 


 <geterg> : there is no data group $energy 


 orbitals $scfmo  will be written to file mos

    irrep                 77a         78a         79a         80a         81a   
 eigenvalues H         -0.17286    -0.16408    -0.12780    -0.12004    -0.07716
            eV          -4.7037     -4.4648     -3.4776     -3.2664     -2.0997
 occupation              2.0000      2.0000      2.0000      2.0000      2.0000 

    irrep                 82a         83a         84a         85a         86a   
 eigenvalues H          0.01561     0.10567     0.11757     0.12730     0.13197
            eV           0.4247      2.8755      3.1993      3.4640      3.5911
 
 
 
 
 ==============================================================================
                           electrostatic moments
 ==============================================================================

 reference point for electrostatic moments:    0.00000   0.00000   0.00000

 
              nuc           elec       ->  total
 ------------------------------------------------------------------------------
                          charge      
 ------------------------------------------------------------------------------
         161.000000    -162.000000      -1.000000
 
 ------------------------------------------------------------------------------
                       dipole moment  
 ------------------------------------------------------------------------------
   x    -831.616688     837.399688       5.783001
   y     479.812479    -484.872301      -5.059822
   z      -0.077896       0.087599       0.009703
 
   | dipole moment | =     7.6841 a.u. =    19.5310 debye 
 
 ------------------------------------------------------------------------------
                     quadrupole moment
 ------------------------------------------------------------------------------
  xx   12050.041869  -12241.917660    -191.875791
  yy    2375.705428   -2499.739226    -124.033798
  zz       5.708199     -98.547345     -92.839146
  xy   -2596.259996    2622.300753      26.040757
  xz      -3.532590       3.518791      -0.013799
  yz      -2.570511       2.642026       0.071515
 
     1/3  trace=    -136.249579
     anisotropy=      98.622151
 
 ==============================================================================
 


    ------------------------------------------------------------------------
         total  cpu-time :  1 minutes and  1 seconds
         total wall-time :  1 minutes and  1 seconds
    ------------------------------------------------------------------------

   ****  ridft : all done  ****


    2018-02-09 14:19:47.868 


 egrad (missouri) : TURBOMOLE V7.2 ( 21454 ) 4 Oct 2017 at 12:24:43
 Copyright (C) 2017 TURBOMOLE GmbH, Karlsruhe


    2018-02-09 14:19:47.887 




                               e g r a d

                             TURBOMOLE GmbH


             integral direct evaluation of excited state
                     and polarizability gradients
                 and first-order nonadiabatic couplings



          references (see also programs escf, dscf and ridft) 

          review 
          F. Furche and D. Rappoport,  
          "Density functional methods for excited states: 
          equilibrium structure and electronic spectra",
          ch. III of "Computational Photochemistry", ed. by 
          M. Olivucci, vol. 16 of "Theoretical and Computational 
          Chemistry", Elsevier, Amsterdam, 2005.

          nonorthonormal Krylov space methods 
          F. Furche, B. T. Krull, B. D. Nguyen, J. Kwon, 
          J. Chem. Phys. 144 (2016), 174105.

          RI-J method 
          D. Rappoport and F. Furche, 
          J. Chem. Phys. 122 (2005), 064105.

          Lagrangian method, implementation, benchmarks 
          F. Furche and R. Ahlrichs,
          J. Chem. Phys. 117 (2002), 7433;
          J. Chem. Phys. 121 (2004), 12772 (E).

          Polarizability derivatives, Raman intensities 
          D. Rappoport and F. Furche, 
          J. Chem. Phys. 126 (2007), 201104.

          First-order nonadiabatic couplings 
          R. Send and F. Furche, 
          J. Chem. Phys. 132 (2010), 044107.
                                     




              +--------------------------------------------------+
              | Atomic coordinate, charge and isotop information |
              +--------------------------------------------------+

                    atomic coordinates            atom    charge  isotop
        -12.73553585    6.95817197   -0.00970617    o      8.000     0
        -10.81817619    5.62093377   -0.00101337    c      6.000     0
         -8.29992721    6.75964209   -0.01105071    c      6.000     0
         -6.10582227    5.27584339   -0.00842066    c      6.000     0
         -6.20696277    2.60855755    0.00567550    c      6.000     0
         -8.59912633    1.43537012    0.00513388    c      6.000     0
        -10.78671250    2.87158346    0.00420670    c      6.000     0
         -3.00756490    6.28768141   -0.00816386    s     16.000     0
         -2.04797686    3.10248353   -0.00549111    c      6.000     0
         -3.87062120    1.43314252    0.00518159    n      7.000     0
          0.61533163    2.59939129   -0.00063797    c      6.000     0
          1.57871039   -0.60811739    0.00378778    s     16.000     0
          2.37092527    4.34759227   -0.00608293    n      7.000     0
          4.77078233    3.38203027   -0.00674645    c      6.000     0
          4.82041220    0.45564409   -0.00086125    c      6.000     0
          5.83865899   -0.22161723    1.69180698    h      1.000     0
          5.84037266   -0.23728427   -1.68435386    h      1.000     0
          6.73533958    4.59326033   -0.01372813    o      8.000     0
         -8.23875109    8.82848875   -0.01318833    h      1.000     0
        -13.97293552    1.24702731    0.00829972    br    35.000     0
         -8.69404343   -0.62156725    0.01638275    h      1.000     0
 
       center of nuclear mass  :   -5.47560471    2.94056349   -0.00025777
       center of nuclear charge:   -5.16532104    2.98020173   -0.00048383

              +--------------------------------------------------+
              |               basis set information              |
              +--------------------------------------------------+

              we will work with the 1s 3p 5d 7f 9g ... basis set
              ...i.e. with spherical basis functions...

   type   atoms  prim   cont   basis
   ---------------------------------------------------------------------------
    o        2     24     14   def2-SV(P)   [3s2p1d|7s4p1d]
    c       10     24     14   def2-SV(P)   [3s2p1d|7s4p1d]
    s        2     36     18   def2-SV(P)   [4s3p1d|10s7p1d]
    n        2     24     14   def2-SV(P)   [3s2p1d|7s4p1d]
    h        4      4      2   def2-SV(P)   [2s|4s]
    br       1     74     32   def2-SV(P)   [5s4p3d|14s10p6d]
   ---------------------------------------------------------------------------
   total:   21    498    272
   ---------------------------------------------------------------------------

   total number of primitive shells          :   88
   total number of contracted shells         :  120
   total number of cartesian basis functions :  291
   total number of SCF-basis functions       :  272


 residuum convergence criterium   :  0.10E-04


 integral neglect threshold       :  0.11E-10
 integral storage threshold THIZE :  0.10E-04
 integral storage threshold THIME :         5

 
             FOUND RI-J FLAG !
 
  
 AUXILIARY BASIS SET information:

              we will work with the 1s 3p 5d 7f 9g ... basis set
              ...i.e. with spherical basis functions...

   type   atoms  prim   cont   basis
   ---------------------------------------------------------------------------
    o        2     70     49   def2-SV(P)   [6s4p3d1f1g|12s5p4d2f1g]
    c       10     70     49   def2-SV(P)   [6s4p3d1f1g|12s5p4d2f1g]
    s        2     77     51   def2-SV(P)   [8s4p3d1f1g|14s5p5d2f1g]
    n        2     70     49   def2-SV(P)   [6s4p3d1f1g|12s5p4d2f1g]
    h        4     16     11   def2-SV(P)   [3s1p1d|5s2p1d]
    br       1     89     58   def2-SV(P)   [8s4p3d2f1g|19s5p5d3f1g]
   ---------------------------------------------------------------------------
   total:   21   1287    890
   ---------------------------------------------------------------------------

   total number of primitive shells          :  140
   total number of contracted shells         :  282
   total number of cartesian basis functions : 1101
   total number of SCF-basis functions       :  890

 RPA SINGLET-EXCITATION-CALCULATION 
 
             FOUND DFT-FLAG !
 

 symmetry group of the molecule :   c1 

 the group has the following generators :
   c1(z)

    1 symmetry operations found

 there are 1 real representations :   a   

 maximum number of shells which are related by symmetry :  1

 IRREP of excited state :   a   
 

 determining totally symmetric integral contributions 
    - equivalent to irreducible tensor elements - 
 which can be formed within each triple of representations :

             representation triple      contributions

              a     a     a               1

    mo occupation :
   irrep   mo's   occupied
    a      272       81
 
 number of basis functions   :                    272
 number of occupied orbitals :                     81
 
  
           ------------------
           density functional
           ------------------
 PBE0 hybrid functional
 exchange:    3/4 (LDA+PBE) + 1/4 HF
 correlation: LDA (PW) + PBE

 iterations will be done with small grid
  
 spherical integration : Lebedev's spherical grid
 spherical gridsize    :                     5
    i.e. gridpoints    :                   590
 value for diffuse not defined
 radial integration    : Chebyshev 2nd kind (scaling 3)
 radial gridsize       :                     8
 integration cells     :                    21
 partition function    : becke
 partition sharpness   :                     3
  
  
           ----------------------
               RI - INFORMATION
           ----------------------

 biggest AO integral is expected to be    21.668154127

 Threshold for integral neglect (rithr2):   0.11E-10
 Threshold for integral neglect (rithr1):   0.11E-10

 Contributions to RI integral batches: 
  neglected integral batches:                  2187
  direct contribution:                            0
  memory contribution:                  5073
 Core memory available (ricore)            5000 MiB
 Core memory needed for (P|Q) and Cholesky 7 MiB
 Core memory used for integrals            244 MiB
  
 ****************************************
 Memory allocated for RIDFT 250 MiB
 ****************************************
                                            
  MOs are in ASCII format !


 reading orbital data $scfmo  from file mos
 orbital characterization : scfconv=7
 preparing numerical integration ....
          Overall gridpoints after grid construction =        122147

 Calculating ground state density on molecular grid

 Integral of ground state density: N =   161.9999969734878    



 number of non-frozen orbitals          :   272
 number of non-frozen occupied orbitals :    81



                        -------------------
                         excitation vector 
                        -------------------


 dimension of super-tensorspace: 2

          IRREP   tensor space dimension   number of roots

           a             15471                   1

 maximum number of Davidson iterations set to   50


 machine precision: 2.22D-16


 logfile sing_a    will be constructed


                       Nonorthonormal Krylov Space Iteration


 total number of roots to be determined:   1


 maximum core memory set to   500 MB,
 corresponding to      379 vectors in CAO basis


 maximum number of simultaneously treated vectors (including degeneracy):        2


 Iteration IRREP Converged      Max. Euclidean
                 roots          residual norm

    1       a        0        3.042262406829907D-02
 
    2       a        0        1.961952161953110D-02
 
    3       a        0        9.593714835933523D-02
 
    4       a        0        4.628697573264563D-02
 
    5       a        0        1.568685343637244D-02
 
    6       a        0        7.436923915883069D-03
 
    7       a        0        3.223953259911797D-03
 
    8       a        0        1.732809682041445D-03
 
    9       a        0        8.129744348094256D-04
 
   10       a        0        3.810412813152796D-04
 
   11       a        0        1.428679306687841D-04
 
   12       a        0        6.457436661785831D-05
 
   13       a        0        1.795658939545299D-05
 
   14       a        1        8.299334287302859D-06
 

 converged!


 Switching to fine grid

 preparing numerical integration ....
          Overall gridpoints after grid construction =        372407

 Calculating ground state density on molecular grid

 Integral of ground state density: N =   161.9999985164585    



 Iteration IRREP Converged      Max. Euclidean
                 roots          residual norm

   15       a        0        1.080331718756491D-05
 

 NOTE: Residual norms are larger than 1.00D-05 due to mgrid option!

 Eigenpairs written on logfile sing_a   



 IRREP   Vector     Eigenvalue           Euclidean residual norm

  a         1    8.760131389173469D-02    1.080331718756491D-05
 




                    Selection rules for point group c1  


 Subduction with respect to c1  :

    Polar vector representation: a                           

    Axial vector representation: a                           

    Symmetric second rank tensor representation: a                           




                            Ground state


 Total energy:                           -4011.726858756000    

 Charge:

               elec          nuc         total

          -162.000000   161.000000    -1.000000


 Electric dipole moment:

               elec          nuc         total   

    x      837.399688  -831.616688     5.783001    Norm:              7.684074
    y     -484.872301   479.812479    -5.059822
    z        0.087599    -0.077896     0.009703    Norm / debye:     19.531115


 Electric quadrupole moment:

               elec          nuc         total   

   xx   -12241.917660 12050.041869  -191.875791
   yy    -2499.739226  2375.705428  -124.033798    1/3*trace:      -136.249579
   zz      -98.547345     5.708199   -92.839146
   xy     2622.300753 -2596.259996    26.040757
   xz        3.518791    -3.532590    -0.013799    Anisotropy:       98.622151
   yz        2.642026    -2.570511     0.071515



 ==============================================================================

                              I R R E P   a   

 ==============================================================================


 Excitation is electric dipole allowed

 Excitation is magnetic dipole allowed

 Excitation is electric quadrupole allowed




                         1 singlet a excitation


 Total energy:                           -4011.639257442108    

 Excitation energy:                      0.8760131389173469E-01

 Excitation energy / eV:                  2.383754057320517    

 Excitation energy / nm:                  520.1217953912329    

 Excitation energy / cm^(-1):             19226.26601522325    


 Oscillator strength:

    velocity representation:             0.4302841157260507    

    length representation:               0.4888528216338845    

    mixed representation:                0.4586331665817600    


 Rotatory strength:

    velocity representation:             0.8203765706186734E-05

    velocity rep. / 10^(-40)erg*cm^3:    0.5300027772880838    

    length representation:               0.9456296854069176E-05

    length rep. / 10^(-40)erg*cm^3:      0.6109223221401385    


 Dominant contributions:

      occ. orbital   energy / eV   virt. orbital     energy / eV   |coeff.|^2*100
       81 a              -2.10          82 a               0.42       91.8
 

 Change of electron number:

            -0.000000


 Electric transition dipole moment (velocity rep.):

    x       -2.695014        Norm:                  2.714363
    y        0.323526
    z        0.000159        Norm / debye:          6.899276


 Electric transition dipole moment (length rep.):

    x       -2.871743        Norm:                  2.893206
    y        0.351757
    z        0.000554        Norm / debye:          7.353852


 Magnetic transition dipole moment / i:

    x       -0.000003        Norm:                  0.001840
    y        0.000001
    z        0.001840        Norm / Bohr mag.:      0.504272


 Electric quadrupole transition moment:

   xx       23.585106
   yy        2.516608        1/3*trace:             8.658824
   zz       -0.125242
   xy      -11.058749
   xz        0.002753        Anisotropy:           29.553487
   yz       -0.001050
 

 Excited state no.    1 chosen for optimization


                       ----------------------
                        CPKS right-hand side 
                       ----------------------


          IRREP   tensor space dimension   number of roots

           a             15471                   1

                          ----------------
                           CPKS equations 
                          ----------------


 logfile dipl_a    will be constructed

 Switching to coarse grid

 preparing numerical integration ....
          Overall gridpoints after grid construction =        122147


                       Nonorthonormal Krylov Space Iteration


 total number of roots to be determined:   1


 maximum core memory set to   500 MB,
 corresponding to      754 vectors in CAO basis


 maximum number of simultaneously treated vectors (including degeneracy):        1


 Iteration IRREP Converged      Max. Euclidean
                 roots          residual norm

    1       a        0        1.060206740985339D-01
 
    2       a        0        4.889260056554375D-02
 
    3       a        0        2.029713462943330D-02
 
    4       a        0        8.067672789998731D-03
 
    5       a        0        3.402240544729585D-03
 
    6       a        0        9.629864508723037D-04
 
    7       a        0        3.933553699817299D-04
 
    8       a        0        1.403328736211718D-04
 
    9       a        0        5.960643761084095D-05
 
   10       a        0        1.636085729093206D-05
 
   11       a        1        6.865686675465537D-06
 

 converged!


 Switching to fine grid

 preparing numerical integration ....
          Overall gridpoints after grid construction =        372407

 Iteration IRREP Converged      Max. Euclidean
                 roots          residual norm

   12       a        0        1.597059683105653D-05
 

 NOTE: Residual norms are larger than 1.00D-05 due to mgrid option!

 Eigenpairs written on logfile dipl_a   



 IRREP   Vector     Frequency            Euclidean residual norm

  a         1    0.000000000000000D+00    1.597059683105653D-05
 

                          -------------------
                           relaxed densities 
                          -------------------


    ----------------------------------------
     S+T+V CONTRIBUTIONS TO ENERGY GRADIENT 
    ----------------------------------------

 1e-integral 1st. derivatives will be neglected if expon. factor < 0.100000E-10


    -----------------------------------------------
     TWO ELECTRON CONTRIBUTIONS TO ENERGY GRADIENT 
    -----------------------------------------------

 setting up bound for integral derivative estimation

 increment for numerical differentiation : 0.00050000

 biggest AO integral is expected to be    21.668154127
 biggest cartesian 1st derivative AO integral is expected to be    83.347447328

 biggest 1-particle AO density matrix element is expected to be    3.2085525624

 core memory to be involved in 2e-gradient :
   symmetry shell pair data              :         1
   two particle density+dens. estimates  :      8556
   derivative integrals                  :      8498
   derivative integral bound             :     21780
   totally                               :     30276


 setting up bound for integral derivative estimation

 increment for numerical differentiation : 0.00050000

 biggest AO integral is expected to be    21.668154127
 biggest cartesian 1st derivative AO integral is expected to be    83.347447328

 2e-integral 1st. derivatives will be neglected if expon. factor < 0.100000E-06
 outer boundary for 2e-integral derivative neglection is 0.161894E-08

 Integrated ground state density     :   161.9999985164569    


          ------------------------------------------------
           cartesian gradient of the energy (hartree/bohr)
          ------------------------------------------------

  ATOM      1 o           2 c           3 c           4 c           5 c 
dE/dx  0.2931651D-02 -0.3426556D-02  0.2530620D-03  0.1874969D-02 -0.1739998D-02
dE/dy -0.1830917D-02  0.1508550D-02 -0.2670428D-02  0.2476887D-02 -0.7493431D-03
dE/dz -0.3159792D-03  0.8571783D-03 -0.4383154D-03 -0.5029430D-03  0.7909048D-03

  ATOM      6 c           7 c           8 s           9 c          10 n 
dE/dx  0.4259491D-03  0.1399929D-03 -0.1428815D-02  0.3356073D-02  0.3405973D-03
dE/dy -0.3746506D-02  0.1704320D-02 -0.7607783D-03 -0.1326440D-02  0.1417681D-02
dE/dz -0.5846870D-03 -0.9716944D-04  0.3617275D-03 -0.6652812D-03  0.6018197D-04

  ATOM     11 c          12 s          13 n          14 c          15 c 
dE/dx -0.4755765D-02  0.4077542D-03  0.1268746D-02 -0.5339825D-02  0.6152509D-03
dE/dy -0.1364694D-02  0.4273621D-03  0.2610444D-02 -0.4484409D-02  0.2536457D-03
dE/dz  0.3139639D-03 -0.5276660D-05 -0.9473397D-04  0.4061330D-03 -0.7102319D-03

  ATOM     16 h          17 h          18 o          19 h          20 br
dE/dx  0.2797099D-04 -0.1543994D-03  0.4980692D-02 -0.6846354D-04  0.1462686D-03
dE/dy -0.1049896D-03 -0.2213591D-03  0.3316761D-02  0.1376487D-02 -0.8561323D-04
dE/dz  0.6613529D-03 -0.2283807D-03 -0.1216875D-03  0.1453988D-03 -0.7289848D-05

  ATOM     21 h 
dE/dx  0.1309333D-03
dE/dy  0.2250389D-02
dE/dz  0.1751444D-03
 
 resulting FORCE  (fx,fy,fz) = (-.139D-04,-.295D-05,0.986D-08)
 resulting MOMENT (mx,my,mz) = (0.272D-05,-.118D-04,-.464D-04)


 **********************************************************************
  |maximum component of gradient| : 0.53398248E-02  (atom 14 c )       
   gradient norm                  : 0.14515435E-01
 **********************************************************************

 exx =      -0.003676 eyy =      -0.000101 ezz =       0.001518
 eyz =       0.000215 exz =       0.000226 exy =       0.008640


 <getgrd> : data group $grad  is missing 

   ***  cartesian gradients written onto <gradient>  ***
 
 
 
 ==============================================================================
                           electrostatic moments
 ==============================================================================

 reference point for electrostatic moments:    0.00000   0.00000   0.00000

 
              nuc           gs,e       ->  gs,tot          excit     ->  total
 ------------------------------------------------------------------------------
                          charge      
 ------------------------------------------------------------------------------
         161.000000    -162.000000      -1.000000      -0.000000      -1.000000
 
 ------------------------------------------------------------------------------
                       dipole moment  
 ------------------------------------------------------------------------------
   x    -831.616688     837.399688       5.783001      -0.932287       4.850714
   y     479.812479    -484.872301      -5.059822       0.859341      -4.200481
   z      -0.077896       0.087599       0.009703      -0.002390       0.007313
 
   | dipole moment | =     6.4167 a.u. =    16.3095 debye 
 
 ------------------------------------------------------------------------------
                     quadrupole moment
 ------------------------------------------------------------------------------
  xx   12050.041869  -12241.917660    -191.875791       0.997706    -190.878085
  yy    2375.705428   -2499.739226    -124.033798       7.435679    -116.598120
  zz       5.708199     -98.547345     -92.839146       0.111079     -92.728067
  xy   -2596.259996    2622.300753      26.040757      -8.573806      17.466952
  xz      -3.532590       3.518791      -0.013799       0.022299       0.008500
  yz      -2.570511       2.642026       0.071515      -0.014631       0.056884
 
     1/3  trace=    -133.401424
     anisotropy=      93.678453
 
 ==============================================================================
 


    ------------------------------------------------------------------------
         total  cpu-time :  6 minutes and 15 seconds
         total wall-time :  6 minutes and 15 seconds
    ------------------------------------------------------------------------

   ****  egrad : all done  ****


    2018-02-09 14:26:02.580 

$dipole from egrad
  x     4.85071398175126    y    -4.20048115468330    z     0.00731280024594    a.u.
   | dipole | =   16.3096453730  debye
/work/bdnguye2/luc_project/5_brluc/ex_geo_opt/save/numforce/KraftWerk/p021
