 operating system is UNIX !

 ridft (missouri) : TURBOMOLE V7.2 ( 21454 ) 4 Oct 2017 at 12:48:15
 Copyright (C) 2017 TURBOMOLE GmbH, Karlsruhe


    2018-02-09 16:26:15.488 



                                  r i d f t

                        DFT program with RI approximation 
                                for coulomb part 




                                                 
                                 References:     
                                                 
          TURBOMOLE:                             
              R. Ahlrichs, M. Baer, M. Haeser, H. Horn, and
              C. Koelmel
              Electronic structure calculations on workstation
              computers: the program system TURBOMOLE
              Chem. Phys. Lett. 162: 165 (1989)
          Density Functional:                              
              O. Treutler and R. Ahlrichs                      
              Efficient Molecular Numerical Integration Schemes
              J. Chem. Phys. 102: 346 (1995)                   
          Parallel Version:                                
              Performance of parallel TURBOMOLE for Density    
              Functional Calculations                          
              M. v. Arnim and R. Ahlrichs                      
              J. Comp. Chem. 19: 1746 (1998)                   
          RI-J Method:                                     
              Auxiliary Basis Sets to approximate Coulomb      
              Potentials                                       
              Chem. Phys. Lett. 240: 283 (1995)                
              K. Eichkorn, O. Treutler, H. Oehm, M. Haeser     
              and R. Ahlrichs                                  
              Chem. Phys. Lett. 242: 652 (1995)                
                                                           
              Auxiliary Basis Sets for Main Row Atoms and their
              Use to approximate Coulomb Potentials            
              K. Eichkorn, F. Weigend, O. Treutler and         
              R. Ahlrichs                                      
              Theo. Chem. Acc. 97: 119 (1997)                   
                                                           
              Accurate Coulomb-fitting basis sets for H to Rn 
              F. Weigend                                        
              Phys. Chem. Chem. Phys. 8: 1057 (2006)            
                                                           
          Multipole accelerated RI-J (MARI-J):             
              Fast evaluation of the Coulomb potential for     
              electron densities using multipole accelerated   
              resolution of identity approximation             
              M. Sierka, A. Hogekamp and R. Ahlrichs           
              J. Chem. Phys. 118: 9136 (2003)                  
          RI-JK Method:                                     
              A fully direct RI-HF algorithm: Implementation,
              optimised auxiliary basis sets, demonstration of
              accuracy and efficiency                         
              F. Weigend                                      
              Phys. Chem. Chem. Phys. 4: 4285 (2002)           
          Two-component HF and DFT with spin-orbit coupling:  
              Self-consistent treatment of spin-orbit         
              interactions with efficient Hartree-Fock and    
              density functional methods                      
              M. K. Armbruster, F. Weigend, C. van Wüllen and 
              W. Klopper                                      
              Phys. Chem. Chem. Phys. 10: 1748 (2008)         
          Relativistic all-electron 2c calculations           
              An efficient implementation of two-component    
              relativistic exact-decoupling methods for large 
              molecules                                       
              D. Peng, N. Middendorf, F. Weigend, M. Reiher   
              J. Chem. Phys. 138, 184105 (2013)               
                                         




              +--------------------------------------------------+
              |      general information about current run       |
              +--------------------------------------------------+

 
 PBE0 hybrid functional
 exchange:    3/4 (LDA+PBE) + 1/4 HF
 correlation: LDA (PW) + PBE
 A Hybrid-DFT calculation using the RI-J approximation will be carried out.
 Allocatable memory for RI due to $ricore (MB):                  5000


              +--------------------------------------------------+
              | Atomic coordinate, charge and isotop information |
              +--------------------------------------------------+

                    atomic coordinates            atom    charge  isotop
        -12.73687863    6.95452319   -0.00357591    o      8.000     0
        -10.81472369    5.61915932   -0.00066779    c      6.000     0
         -8.30340135    6.76399852   -0.01125324    c      6.000     0
         -6.11213779    5.27553640   -0.00875869    c      6.000     0
         -6.20032925    2.60941285    0.00152017    c      6.000     0
         -8.59642151    1.43460915    0.00769785    c      6.000     0
        -10.78959590    2.86506982    0.00699274    c      6.000     0
         -3.00622321    6.29215022   -0.00933572    s     16.000     0
         -2.05188579    3.10808727   -0.00557863    c      6.000     0
         -3.87152837    1.42876449    0.00094170    n      7.000     0
          0.62116496    2.59976580    0.00045386    c      6.000     0
          1.57789554   -0.60966353    0.01056185    s     16.000     0
          2.36895360    4.34381295   -0.00932466    n      7.000     0
          4.76946989    3.38876291   -0.00898184    c      6.000     0
          4.81924802    0.45756454   -0.00001921    c      6.000     0
          5.84386729   -0.22657957    1.68758248    h      1.000     0
          5.83541033   -0.23305978   -1.68351182    h      1.000     0
          6.73013127    4.59209614   -0.01564858    o      8.000     0
         -8.23201845    8.83072414   -0.01643006    h      1.000     0
        -13.97162309    1.24505564    0.01207904    br    35.000     0
         -8.69558957   -0.62834132    0.01638275    h      1.000     0
 
       center of nuclear mass  :   -5.47567513    2.94015379    0.00109768
       center of nuclear charge:   -5.16541651    2.97982779    0.00076001

              +--------------------------------------------------+
              |               basis set information              |
              +--------------------------------------------------+

              we will work with the 1s 3p 5d 7f 9g ... basis set
              ...i.e. with spherical basis functions...

   type   atoms  prim   cont   basis
   ---------------------------------------------------------------------------
    o        2     24     14   def2-SV(P)   [3s2p1d|7s4p1d]
    c       10     24     14   def2-SV(P)   [3s2p1d|7s4p1d]
    s        2     36     18   def2-SV(P)   [4s3p1d|10s7p1d]
    n        2     24     14   def2-SV(P)   [3s2p1d|7s4p1d]
    h        4      4      2   def2-SV(P)   [2s|4s]
    br       1     74     32   def2-SV(P)   [5s4p3d|14s10p6d]
   ---------------------------------------------------------------------------
   total:   21    498    272
   ---------------------------------------------------------------------------

   total number of primitive shells          :   88
   total number of contracted shells         :  120
   total number of cartesian basis functions :  291
   total number of SCF-basis functions       :  272


 integral neglect threshold       :  0.11E-10
 integral storage threshold THIZE :  0.10E-04
 integral storage threshold THIME :         5

 RI-J AUXILIARY BASIS SET information:

              we will work with the 1s 3p 5d 7f 9g ... basis set
              ...i.e. with spherical basis functions...

   type   atoms  prim   cont   basis
   ---------------------------------------------------------------------------
    o        2     70     49   def2-SV(P)   [6s4p3d1f1g|12s5p4d2f1g]
    c       10     70     49   def2-SV(P)   [6s4p3d1f1g|12s5p4d2f1g]
    s        2     77     51   def2-SV(P)   [8s4p3d1f1g|14s5p5d2f1g]
    n        2     70     49   def2-SV(P)   [6s4p3d1f1g|12s5p4d2f1g]
    h        4     16     11   def2-SV(P)   [3s1p1d|5s2p1d]
    br       1     89     58   def2-SV(P)   [8s4p3d2f1g|19s5p5d3f1g]
   ---------------------------------------------------------------------------
   total:   21   1287    890
   ---------------------------------------------------------------------------

   total number of primitive shells          :  140
   total number of contracted shells         :  282
   total number of cartesian basis functions : 1101
   total number of SCF-basis functions       :  890


 symmetry group of the molecule :   c1 

 the group has the following generators :
   c1(z)

    1 symmetry operations found

 there are 1 real representations :   a   

 maximum number of shells which are related by symmetry :  1


    mo occupation :
   irrep   mo's   occupied
    a      272       81
 
 number of basis functions   :                    272
 number of occupied orbitals :                     81
 
  
           ------------------
           density functional
           ------------------
 PBE0 hybrid functional
 exchange:    3/4 (LDA+PBE) + 1/4 HF
 correlation: LDA (PW) + PBE

 iterations will be done with small grid
  
 spherical integration : Lebedev's spherical grid
 spherical gridsize    :                     5
    i.e. gridpoints    :                   590
 value for diffuse not defined
 radial integration    : Chebyshev 2nd kind (scaling 3)
 radial gridsize       :                     8
 integration cells     :                    21
 partition function    : becke
 partition sharpness   :                     3
  

 biggest AO integral is expected to be    21.668154127
  
           ------------------------
               RI-J - INFORMATION
           ------------------------
 Contributions to RI integral batches: 
  neglected integral batches:                  2343
  direct contribution:                            0
  memory contribution:                  4917
 Memory core needed for (P|Q) and Cholesky      7 MByte
 Memory core minimum needed except of (P|Q)     1 MByte
 Total minimum memory core needed (sum)         7 MByte
  
 ****************************************
 Memory allocated for RI-J   243 MByte
 ****************************************
                                            

          ------------------------
          nuclear repulsion energy  :   1647.22333063    
          ------------------------


         -----------------
         -S,T+V- integrals
         -----------------

 1e-integrals will be neglected if expon. factor < 0.114844E-11
 
   Difference densities algorithm switched on.
   The maximal number of linear combinations of
   difference densities is                    20 .

 DIIS switched on: error vector is FDS-SDF
 Max. Iterations for DIIS is     :   4
 DIIS matrix (see manual) 
    Scaling factor of diagonals  :  1.200
    threshold for scaling factor :  0.000

 scf convergence criterion : increment of total energy < .1000000D-06
                  and increment of one-electron energy < .1000000D-03

  MOs are in ASCII format !


 automatic virtual orbital shift switched on 
      shift if e(lumo)-e(homo) < 0.10000000    


 reading orbital data $scfmo  from file mos
 orbital characterization : scfconv=7

 dump of DSCF restart information has been disabled !


 Starting SCF iterations

          Overall gridpoints after grid construction =        122142

 ITERATION  ENERGY          1e-ENERGY        2e-ENERGY     NORM[dD(SAO)]  TOL
   1  -4011.7271284023    -8854.8912468     3195.9407878    0.000D+00 0.115D-10
                            Exc = -172.719790072     Coul =  3424.31773368    
                            exK = -55.6571558005    
                              N = 162.00000000    
                            current damping = 0.700
 
          max. resid. norm for Fia-block=  2.169D-03 for orbital      1a         
          max. resid. fock norm         =  4.320D-03 for orbital    197a         

 ITERATION  ENERGY          1e-ENERGY        2e-ENERGY     NORM[dD(SAO)]  TOL
   2  -4011.7271542557    -8854.8931543     3195.9426694    0.169D-01 0.726D-11
                            Exc = -172.719797960      Eck =  3368.66246741    
                              N = 162.00000009    
                            current damping = 0.650
 
          Norm of current diis error: 0.52676E-02
          max. resid. norm for Fia-block=  8.932D-04 for orbital      1a         
          max. resid. fock norm         =  1.801D-03 for orbital    197a         

 ITERATION  ENERGY          1e-ENERGY        2e-ENERGY     NORM[dD(SAO)]  TOL
   3  -4011.7271592267    -8854.8943206     3195.9438308    0.327D-02 0.561D-11
                            Exc = -172.719758045      Eck =  3368.66358883    
                              N = 162.00000012    
                            current damping = 0.500
 
          Norm of current diis error: 0.30951E-02
          max. resid. norm for Fia-block=  3.519D-04 for orbital      1a         
          max. resid. fock norm         =  7.237D-04 for orbital    197a         

 ITERATION  ENERGY          1e-ENERGY        2e-ENERGY     NORM[dD(SAO)]  TOL
   4  -4011.7271607632    -8854.8926472     3195.9421558    0.142D-02 0.518D-11
                            Exc = -172.719768467      Eck =  3368.66192426    
                              N = 162.00000013    
                            current damping = 0.550
 
          Norm of current diis error: 0.12861E-02
          max. resid. norm for Fia-block=  1.173D-04 for orbital      1a         
          max. resid. fock norm         =  2.646D-04 for orbital    258a         

 ITERATION  ENERGY          1e-ENERGY        2e-ENERGY     NORM[dD(SAO)]  TOL
   5  -4011.7271610490    -8854.8938704     3195.9433787    0.670D-03 0.496D-11
                            Exc = -172.719753891      Eck =  3368.66313258    
                              N = 162.00000014    
                            current damping = 0.600
 
          Norm of current diis error: 0.51957E-03
          max. resid. norm for Fia-block=  4.165D-05 for orbital      1a         
          max. resid. fock norm         =  9.341D-05 for orbital    222a         
          mo-orthogonalization: Cholesky decomposition

 ENERGY CONVERGED !

          Overall gridpoints after grid construction =        372407

 ITERATION  ENERGY          1e-ENERGY        2e-ENERGY     NORM[dD(SAO)]  TOL
   6  -4011.7271641805    -8854.8936220     3195.9431272    0.278D-03 0.485D-11
                            Exc = -172.719779233      Eck =  3368.66290643    
                              N = 161.99999854    
                            current damping = 0.650
 
          Norm of current diis error: 0.22515E-03
          max. resid. norm for Fia-block=  1.650D-05 for orbital     81a         
          max. resid. fock norm         =  3.852D-05 for orbital    241a         

 End of SCF iterations

   convergence criteria satisfied after     6 iterations


                  ------------------------------------------ 
                 |  total energy      =  -4011.72716418054  |
                  ------------------------------------------ 
                 :  kinetic energy    =   4002.29561442418  :
                 :  potential energy  =  -8014.02277860472  :
                 :  virial theorem    =      1.99764900519  :
                 :  wavefunction norm =      1.00000000000  :
                  .......................................... 


 <geterg> : there is no data group $energy 


 orbitals $scfmo  will be written to file mos

    irrep                 77a         78a         79a         80a         81a   
 eigenvalues H         -0.17324    -0.16431    -0.12774    -0.11932    -0.07658
            eV          -4.7140     -4.4711     -3.4760     -3.2468     -2.0837
 occupation              2.0000      2.0000      2.0000      2.0000      2.0000 

    irrep                 82a         83a         84a         85a         86a   
 eigenvalues H          0.01631     0.10588     0.11758     0.12730     0.13247
            eV           0.4439      2.8812      3.1995      3.4641      3.6048
 
 
 
 
 ==============================================================================
                           electrostatic moments
 ==============================================================================

 reference point for electrostatic moments:    0.00000   0.00000   0.00000

 
              nuc           elec       ->  total
 ------------------------------------------------------------------------------
                          charge      
 ------------------------------------------------------------------------------
         161.000000    -162.000000      -1.000000
 
 ------------------------------------------------------------------------------
                       dipole moment  
 ------------------------------------------------------------------------------
   x    -831.632058     837.442129       5.810071
   y     479.752274    -484.796852      -5.044578
   z       0.122362      -0.115723       0.006639
 
   | dipole moment | =     7.6945 a.u. =    19.5574 debye 
 
 ------------------------------------------------------------------------------
                     quadrupole moment
 ------------------------------------------------------------------------------
  xx   12048.161508  -12240.040544    -191.879036
  yy    2376.210316   -2500.129755    -123.919439
  zz       5.696205     -98.547745     -92.851540
  xy   -2594.862674    2621.093114      26.230440
  xz      -5.986862       6.018907       0.032046
  yz      -2.535684       2.588215       0.052531
 
     1/3  trace=    -136.216672
     anisotropy=      98.788675
 
 ==============================================================================
 


    ------------------------------------------------------------------------
         total  cpu-time :  57.42 seconds
         total wall-time :  57.43 seconds
    ------------------------------------------------------------------------

   ****  ridft : all done  ****


    2018-02-09 16:27:12.906 


 egrad (missouri) : TURBOMOLE V7.2 ( 21454 ) 4 Oct 2017 at 12:24:43
 Copyright (C) 2017 TURBOMOLE GmbH, Karlsruhe


    2018-02-09 16:27:12.916 




                               e g r a d

                             TURBOMOLE GmbH


             integral direct evaluation of excited state
                     and polarizability gradients
                 and first-order nonadiabatic couplings



          references (see also programs escf, dscf and ridft) 

          review 
          F. Furche and D. Rappoport,  
          "Density functional methods for excited states: 
          equilibrium structure and electronic spectra",
          ch. III of "Computational Photochemistry", ed. by 
          M. Olivucci, vol. 16 of "Theoretical and Computational 
          Chemistry", Elsevier, Amsterdam, 2005.

          nonorthonormal Krylov space methods 
          F. Furche, B. T. Krull, B. D. Nguyen, J. Kwon, 
          J. Chem. Phys. 144 (2016), 174105.

          RI-J method 
          D. Rappoport and F. Furche, 
          J. Chem. Phys. 122 (2005), 064105.

          Lagrangian method, implementation, benchmarks 
          F. Furche and R. Ahlrichs,
          J. Chem. Phys. 117 (2002), 7433;
          J. Chem. Phys. 121 (2004), 12772 (E).

          Polarizability derivatives, Raman intensities 
          D. Rappoport and F. Furche, 
          J. Chem. Phys. 126 (2007), 201104.

          First-order nonadiabatic couplings 
          R. Send and F. Furche, 
          J. Chem. Phys. 132 (2010), 044107.
                                     




              +--------------------------------------------------+
              | Atomic coordinate, charge and isotop information |
              +--------------------------------------------------+

                    atomic coordinates            atom    charge  isotop
        -12.73687863    6.95452319   -0.00357591    o      8.000     0
        -10.81472369    5.61915932   -0.00066779    c      6.000     0
         -8.30340135    6.76399852   -0.01125324    c      6.000     0
         -6.11213779    5.27553640   -0.00875869    c      6.000     0
         -6.20032925    2.60941285    0.00152017    c      6.000     0
         -8.59642151    1.43460915    0.00769785    c      6.000     0
        -10.78959590    2.86506982    0.00699274    c      6.000     0
         -3.00622321    6.29215022   -0.00933572    s     16.000     0
         -2.05188579    3.10808727   -0.00557863    c      6.000     0
         -3.87152837    1.42876449    0.00094170    n      7.000     0
          0.62116496    2.59976580    0.00045386    c      6.000     0
          1.57789554   -0.60966353    0.01056185    s     16.000     0
          2.36895360    4.34381295   -0.00932466    n      7.000     0
          4.76946989    3.38876291   -0.00898184    c      6.000     0
          4.81924802    0.45756454   -0.00001921    c      6.000     0
          5.84386729   -0.22657957    1.68758248    h      1.000     0
          5.83541033   -0.23305978   -1.68351182    h      1.000     0
          6.73013127    4.59209614   -0.01564858    o      8.000     0
         -8.23201845    8.83072414   -0.01643006    h      1.000     0
        -13.97162309    1.24505564    0.01207904    br    35.000     0
         -8.69558957   -0.62834132    0.01638275    h      1.000     0
 
       center of nuclear mass  :   -5.47567513    2.94015379    0.00109768
       center of nuclear charge:   -5.16541651    2.97982779    0.00076001

              +--------------------------------------------------+
              |               basis set information              |
              +--------------------------------------------------+

              we will work with the 1s 3p 5d 7f 9g ... basis set
              ...i.e. with spherical basis functions...

   type   atoms  prim   cont   basis
   ---------------------------------------------------------------------------
    o        2     24     14   def2-SV(P)   [3s2p1d|7s4p1d]
    c       10     24     14   def2-SV(P)   [3s2p1d|7s4p1d]
    s        2     36     18   def2-SV(P)   [4s3p1d|10s7p1d]
    n        2     24     14   def2-SV(P)   [3s2p1d|7s4p1d]
    h        4      4      2   def2-SV(P)   [2s|4s]
    br       1     74     32   def2-SV(P)   [5s4p3d|14s10p6d]
   ---------------------------------------------------------------------------
   total:   21    498    272
   ---------------------------------------------------------------------------

   total number of primitive shells          :   88
   total number of contracted shells         :  120
   total number of cartesian basis functions :  291
   total number of SCF-basis functions       :  272


 residuum convergence criterium   :  0.10E-04


 integral neglect threshold       :  0.11E-10
 integral storage threshold THIZE :  0.10E-04
 integral storage threshold THIME :         5

 
             FOUND RI-J FLAG !
 
  
 AUXILIARY BASIS SET information:

              we will work with the 1s 3p 5d 7f 9g ... basis set
              ...i.e. with spherical basis functions...

   type   atoms  prim   cont   basis
   ---------------------------------------------------------------------------
    o        2     70     49   def2-SV(P)   [6s4p3d1f1g|12s5p4d2f1g]
    c       10     70     49   def2-SV(P)   [6s4p3d1f1g|12s5p4d2f1g]
    s        2     77     51   def2-SV(P)   [8s4p3d1f1g|14s5p5d2f1g]
    n        2     70     49   def2-SV(P)   [6s4p3d1f1g|12s5p4d2f1g]
    h        4     16     11   def2-SV(P)   [3s1p1d|5s2p1d]
    br       1     89     58   def2-SV(P)   [8s4p3d2f1g|19s5p5d3f1g]
   ---------------------------------------------------------------------------
   total:   21   1287    890
   ---------------------------------------------------------------------------

   total number of primitive shells          :  140
   total number of contracted shells         :  282
   total number of cartesian basis functions : 1101
   total number of SCF-basis functions       :  890

 RPA SINGLET-EXCITATION-CALCULATION 
 
             FOUND DFT-FLAG !
 

 symmetry group of the molecule :   c1 

 the group has the following generators :
   c1(z)

    1 symmetry operations found

 there are 1 real representations :   a   

 maximum number of shells which are related by symmetry :  1

 IRREP of excited state :   a   
 

 determining totally symmetric integral contributions 
    - equivalent to irreducible tensor elements - 
 which can be formed within each triple of representations :

             representation triple      contributions

              a     a     a               1

    mo occupation :
   irrep   mo's   occupied
    a      272       81
 
 number of basis functions   :                    272
 number of occupied orbitals :                     81
 
  
           ------------------
           density functional
           ------------------
 PBE0 hybrid functional
 exchange:    3/4 (LDA+PBE) + 1/4 HF
 correlation: LDA (PW) + PBE

 iterations will be done with small grid
  
 spherical integration : Lebedev's spherical grid
 spherical gridsize    :                     5
    i.e. gridpoints    :                   590
 value for diffuse not defined
 radial integration    : Chebyshev 2nd kind (scaling 3)
 radial gridsize       :                     8
 integration cells     :                    21
 partition function    : becke
 partition sharpness   :                     3
  
  
           ----------------------
               RI - INFORMATION
           ----------------------

 biggest AO integral is expected to be    21.668154127

 Threshold for integral neglect (rithr2):   0.11E-10
 Threshold for integral neglect (rithr1):   0.11E-10

 Contributions to RI integral batches: 
  neglected integral batches:                  2187
  direct contribution:                            0
  memory contribution:                  5073
 Core memory available (ricore)            5000 MiB
 Core memory needed for (P|Q) and Cholesky 7 MiB
 Core memory used for integrals            244 MiB
  
 ****************************************
 Memory allocated for RIDFT 250 MiB
 ****************************************
                                            
  MOs are in ASCII format !


 reading orbital data $scfmo  from file mos
 orbital characterization : scfconv=7
 preparing numerical integration ....
          Overall gridpoints after grid construction =        122142

 Calculating ground state density on molecular grid

 Integral of ground state density: N =   162.0000001589156    



 number of non-frozen orbitals          :   272
 number of non-frozen occupied orbitals :    81



                        -------------------
                         excitation vector 
                        -------------------


 dimension of super-tensorspace: 2

          IRREP   tensor space dimension   number of roots

           a             15471                   1

 maximum number of Davidson iterations set to   50


 machine precision: 2.22D-16


 logfile sing_a    will be constructed


                       Nonorthonormal Krylov Space Iteration


 total number of roots to be determined:   1


 maximum core memory set to   500 MB,
 corresponding to      379 vectors in CAO basis


 maximum number of simultaneously treated vectors (including degeneracy):        2


 Iteration IRREP Converged      Max. Euclidean
                 roots          residual norm

    1       a        0        3.025191900191659D-02
 
    2       a        0        1.674448377386098D-02
 
    3       a        0        2.934383055733587D-02
 
    4       a        0        5.473013104447799D-02
 
    5       a        0        2.052746510091076D-02
 
    6       a        0        8.737387521656328D-03
 
    7       a        0        3.834405453364635D-03
 
    8       a        0        2.043973628050923D-03
 
    9       a        0        9.616666852144758D-04
 
   10       a        0        4.613585292719603D-04
 
   11       a        0        1.783677949885947D-04
 
   12       a        0        8.493453052376043D-05
 
   13       a        0        2.644365114134312D-05
 
   14       a        0        1.353211397561171D-05
 
   15       a        1        5.128060974557409D-06
 

 converged!


 Switching to fine grid

 preparing numerical integration ....
          Overall gridpoints after grid construction =        372407

 Calculating ground state density on molecular grid

 Integral of ground state density: N =   161.9999985402030    



 Iteration IRREP Converged      Max. Euclidean
                 roots          residual norm

   16       a        1        8.876209534968892D-06
 

 converged!

 Eigenpairs written on logfile sing_a   



 IRREP   Vector     Eigenvalue           Euclidean residual norm

  a         1    8.784579076398338D-02    8.876209534968892D-06
 




                    Selection rules for point group c1  


 Subduction with respect to c1  :

    Polar vector representation: a                           

    Axial vector representation: a                           

    Symmetric second rank tensor representation: a                           




                            Ground state


 Total energy:                           -4011.727164181000    

 Charge:

               elec          nuc         total

          -162.000000   161.000000    -1.000000


 Electric dipole moment:

               elec          nuc         total   

    x      837.442129  -831.632058     5.810071    Norm:              7.694462
    y     -484.796852   479.752274    -5.044578
    z       -0.115723     0.122362     0.006639    Norm / debye:     19.557519


 Electric quadrupole moment:

               elec          nuc         total   

   xx   -12240.040544 12048.161508  -191.879036
   yy    -2500.129755  2376.210316  -123.919439    1/3*trace:      -136.216672
   zz      -98.547745     5.696205   -92.851540
   xy     2621.093114 -2594.862674    26.230440
   xz        6.018907    -5.986862     0.032046    Anisotropy:       98.788675
   yz        2.588215    -2.535684     0.052531



 ==============================================================================

                              I R R E P   a   

 ==============================================================================


 Excitation is electric dipole allowed

 Excitation is magnetic dipole allowed

 Excitation is electric quadrupole allowed




                         1 singlet a excitation


 Total energy:                           -4011.639318390236    

 Excitation energy:                      0.8784579076398338E-01

 Excitation energy / eV:                  2.390406614345679    

 Excitation energy / nm:                  518.6742843765360    

 Excitation energy / cm^(-1):             19279.92248647472    


 Oscillator strength:

    velocity representation:             0.4389023629242075    

    length representation:               0.4982584233231777    

    mixed representation:                0.4676385201180683    


 Rotatory strength:

    velocity representation:             0.4386053123047125E-05

    velocity rep. / 10^(-40)erg*cm^3:    0.2833601567625190    

    length representation:               0.4754310953267540E-05

    length rep. / 10^(-40)erg*cm^3:      0.3071513862740728    


 Dominant contributions:

      occ. orbital   energy / eV   virt. orbital     energy / eV   |coeff.|^2*100
       81 a              -2.08          82 a               0.44       92.3
 

 Change of electron number:

             0.000000


 Electric transition dipole moment (velocity rep.):

    x        2.717602        Norm:                  2.737594
    y       -0.330242
    z       -0.000702        Norm / debye:          6.958324


 Electric transition dipole moment (length rep.):

    x        2.894774        Norm:                  2.916839
    y       -0.358098
    z       -0.000783        Norm / debye:          7.413922


 Magnetic transition dipole moment / i:

    x        0.000001        Norm:                  0.001846
    y       -0.000003
    z       -0.001846        Norm / Bohr mag.:      0.505851


 Electric quadrupole transition moment:

   xx      -23.753681
   yy       -2.566387        1/3*trace:            -8.731389
   zz        0.125903
   xy       11.156501
   xz        0.003400        Anisotropy:           29.775742
   yz       -0.003457
 

 Excited state no.    1 chosen for optimization


                       ----------------------
                        CPKS right-hand side 
                       ----------------------


          IRREP   tensor space dimension   number of roots

           a             15471                   1

                          ----------------
                           CPKS equations 
                          ----------------


 logfile dipl_a    will be constructed

 Switching to coarse grid

 preparing numerical integration ....
          Overall gridpoints after grid construction =        122142


                       Nonorthonormal Krylov Space Iteration


 total number of roots to be determined:   1


 maximum core memory set to   500 MB,
 corresponding to      754 vectors in CAO basis


 maximum number of simultaneously treated vectors (including degeneracy):        1


 Iteration IRREP Converged      Max. Euclidean
                 roots          residual norm

    1       a        0        1.059236513097122D-01
 
    2       a        0        4.937837409270712D-02
 
    3       a        0        2.029265070678682D-02
 
    4       a        0        8.063967887477031D-03
 
    5       a        0        3.382071860633012D-03
 
    6       a        0        9.638682207174186D-04
 
    7       a        0        3.926456994544393D-04
 
    8       a        0        1.396688696693816D-04
 
    9       a        0        5.949439177593662D-05
 
   10       a        0        1.632896429134102D-05
 
   11       a        1        6.879929134393368D-06
 

 converged!


 Switching to fine grid

 preparing numerical integration ....
          Overall gridpoints after grid construction =        372407

 Iteration IRREP Converged      Max. Euclidean
                 roots          residual norm

   12       a        0        1.584125466336763D-05
 

 NOTE: Residual norms are larger than 1.00D-05 due to mgrid option!

 Eigenpairs written on logfile dipl_a   



 IRREP   Vector     Frequency            Euclidean residual norm

  a         1    0.000000000000000D+00    1.584125466336763D-05
 

                          -------------------
                           relaxed densities 
                          -------------------


    ----------------------------------------
     S+T+V CONTRIBUTIONS TO ENERGY GRADIENT 
    ----------------------------------------

 1e-integral 1st. derivatives will be neglected if expon. factor < 0.100000E-10


    -----------------------------------------------
     TWO ELECTRON CONTRIBUTIONS TO ENERGY GRADIENT 
    -----------------------------------------------

 setting up bound for integral derivative estimation

 increment for numerical differentiation : 0.00050000

 biggest AO integral is expected to be    21.668154127
 biggest cartesian 1st derivative AO integral is expected to be    83.347447328

 biggest 1-particle AO density matrix element is expected to be    3.2084707445

 core memory to be involved in 2e-gradient :
   symmetry shell pair data              :         1
   two particle density+dens. estimates  :      8556
   derivative integrals                  :      8498
   derivative integral bound             :     21780
   totally                               :     30276


 setting up bound for integral derivative estimation

 increment for numerical differentiation : 0.00050000

 biggest AO integral is expected to be    21.668154127
 biggest cartesian 1st derivative AO integral is expected to be    83.347447328

 2e-integral 1st. derivatives will be neglected if expon. factor < 0.100000E-06
 outer boundary for 2e-integral derivative neglection is 0.161902E-08

 Integrated ground state density     :   161.9999985402027    


          ------------------------------------------------
           cartesian gradient of the energy (hartree/bohr)
          ------------------------------------------------

  ATOM      1 o           2 c           3 c           4 c           5 c 
dE/dx  0.1778050D-02 -0.2700399D-03 -0.1216258D-02 -0.6675270D-03  0.3447759D-02
dE/dy -0.8869667D-03  0.8890634D-03 -0.3669323D-03  0.1015185D-02  0.9801526D-04
dE/dz -0.1091346D-03  0.3660381D-03 -0.2555656D-03 -0.2487646D-03  0.2842574D-03

  ATOM      6 c           7 c           8 s           9 c          10 n 
dE/dx  0.1021974D-02 -0.2858561D-02  0.1187731D-03  0.3433346D-03 -0.2708458D-02
dE/dy -0.1720433D-02 -0.1350307D-03  0.4571106D-03  0.1399284D-02 -0.1410792D-02
dE/dz -0.1414199D-03  0.9608019D-05  0.2609706D-03 -0.4709050D-03 -0.1418229D-04

  ATOM     11 c          12 s          13 n          14 c          15 c 
dE/dx  0.2090658D-02 -0.5592021D-05 -0.3035205D-03 -0.2432162D-02  0.6296763D-03
dE/dy  0.2658155D-03 -0.9052993D-05 -0.1297913D-02  0.1080022D-02  0.3362030D-03
dE/dz  0.3538646D-03  0.4020681D-04 -0.5275058D-04 -0.8080217D-04 -0.1474596D-02

  ATOM     16 h          17 h          18 o          19 h          20 br
dE/dx  0.3166714D-03 -0.4875879D-03  0.4089494D-03  0.4472962D-03  0.7110245D-03
dE/dy -0.6273084D-03  0.9144661D-04 -0.3704070D-03  0.8787751D-03  0.2223375D-03
dE/dz  0.7966280D-03  0.6505575D-03  0.3248895D-05  0.5312461D-04 -0.4288995D-04

  ATOM     21 h 
dE/dx -0.3791117D-03
dE/dy  0.8875705D-04
dE/dz  0.7291977D-04
 
 resulting FORCE  (fx,fy,fz) = (-.147D-04,-.282D-05,0.414D-06)
 resulting MOMENT (mx,my,mz) = (-.381D-05,0.424D-04,0.126D-04)


 **********************************************************************
  |maximum component of gradient| : 0.34477589E-02  (atom  5 c )       
   gradient norm                  : 0.80120311E-02
 **********************************************************************

 exx =      -0.012000 eyy =       0.009585 ezz =       0.000256
 eyz =      -0.001246 exz =       0.001349 exy =       0.002483


 <getgrd> : data group $grad  is missing 

   ***  cartesian gradients written onto <gradient>  ***
 
 
 
 ==============================================================================
                           electrostatic moments
 ==============================================================================

 reference point for electrostatic moments:    0.00000   0.00000   0.00000

 
              nuc           gs,e       ->  gs,tot          excit     ->  total
 ------------------------------------------------------------------------------
                          charge      
 ------------------------------------------------------------------------------
         161.000000    -162.000000      -1.000000      -0.000000      -1.000000
 
 ------------------------------------------------------------------------------
                       dipole moment  
 ------------------------------------------------------------------------------
   x    -831.632058     837.442129       5.810071      -0.928569       4.881502
   y     479.752274    -484.796852      -5.044578       0.845242      -4.199336
   z       0.122362      -0.115723       0.006639      -0.002478       0.004161
 
   | dipole moment | =     6.4392 a.u. =    16.3669 debye 
 
 ------------------------------------------------------------------------------
                     quadrupole moment
 ------------------------------------------------------------------------------
  xx   12048.161508  -12240.040544    -191.879036       1.082533    -190.796503
  yy    2376.210316   -2500.129755    -123.919439       7.312414    -116.607025
  zz       5.696205     -98.547745     -92.851540       0.108131     -92.743409
  xy   -2594.862674    2621.093114      26.230440      -8.493429      17.737011
  xz      -5.986862       6.018907       0.032046       0.022012       0.054058
  yz      -2.535684       2.588215       0.052531      -0.013792       0.038739
 
     1/3  trace=    -133.382312
     anisotropy=      93.743255
 
 ==============================================================================
 


    ------------------------------------------------------------------------
         total  cpu-time :  6 minutes and  3 seconds
         total wall-time :  6 minutes and  3 seconds
    ------------------------------------------------------------------------

   ****  egrad : all done  ****


    2018-02-09 16:33:15.980 

$dipole from egrad
  x     4.88150181875096    y    -4.19933641672804    z     0.00416121719732    a.u.
   | dipole | =   16.3669784260  debye
/work/bdnguye2/luc_project/5_brluc/ex_geo_opt/save/numforce/KraftWerk/p039
