 operating system is UNIX !

 ridft (missouri) : TURBOMOLE V7.2 ( 21454 ) 4 Oct 2017 at 12:48:15
 Copyright (C) 2017 TURBOMOLE GmbH, Karlsruhe


    2018-02-09 17:09:42.546 



                                  r i d f t

                        DFT program with RI approximation 
                                for coulomb part 




                                                 
                                 References:     
                                                 
          TURBOMOLE:                             
              R. Ahlrichs, M. Baer, M. Haeser, H. Horn, and
              C. Koelmel
              Electronic structure calculations on workstation
              computers: the program system TURBOMOLE
              Chem. Phys. Lett. 162: 165 (1989)
          Density Functional:                              
              O. Treutler and R. Ahlrichs                      
              Efficient Molecular Numerical Integration Schemes
              J. Chem. Phys. 102: 346 (1995)                   
          Parallel Version:                                
              Performance of parallel TURBOMOLE for Density    
              Functional Calculations                          
              M. v. Arnim and R. Ahlrichs                      
              J. Comp. Chem. 19: 1746 (1998)                   
          RI-J Method:                                     
              Auxiliary Basis Sets to approximate Coulomb      
              Potentials                                       
              Chem. Phys. Lett. 240: 283 (1995)                
              K. Eichkorn, O. Treutler, H. Oehm, M. Haeser     
              and R. Ahlrichs                                  
              Chem. Phys. Lett. 242: 652 (1995)                
                                                           
              Auxiliary Basis Sets for Main Row Atoms and their
              Use to approximate Coulomb Potentials            
              K. Eichkorn, F. Weigend, O. Treutler and         
              R. Ahlrichs                                      
              Theo. Chem. Acc. 97: 119 (1997)                   
                                                           
              Accurate Coulomb-fitting basis sets for H to Rn 
              F. Weigend                                        
              Phys. Chem. Chem. Phys. 8: 1057 (2006)            
                                                           
          Multipole accelerated RI-J (MARI-J):             
              Fast evaluation of the Coulomb potential for     
              electron densities using multipole accelerated   
              resolution of identity approximation             
              M. Sierka, A. Hogekamp and R. Ahlrichs           
              J. Chem. Phys. 118: 9136 (2003)                  
          RI-JK Method:                                     
              A fully direct RI-HF algorithm: Implementation,
              optimised auxiliary basis sets, demonstration of
              accuracy and efficiency                         
              F. Weigend                                      
              Phys. Chem. Chem. Phys. 4: 4285 (2002)           
          Two-component HF and DFT with spin-orbit coupling:  
              Self-consistent treatment of spin-orbit         
              interactions with efficient Hartree-Fock and    
              density functional methods                      
              M. K. Armbruster, F. Weigend, C. van Wüllen and 
              W. Klopper                                      
              Phys. Chem. Chem. Phys. 10: 1748 (2008)         
          Relativistic all-electron 2c calculations           
              An efficient implementation of two-component    
              relativistic exact-decoupling methods for large 
              molecules                                       
              D. Peng, N. Middendorf, F. Weigend, M. Reiher   
              J. Chem. Phys. 138, 184105 (2013)               
                                         




              +--------------------------------------------------+
              |      general information about current run       |
              +--------------------------------------------------+

 
 PBE0 hybrid functional
 exchange:    3/4 (LDA+PBE) + 1/4 HF
 correlation: LDA (PW) + PBE
 A Hybrid-DFT calculation using the RI-J approximation will be carried out.
 Allocatable memory for RI due to $ricore (MB):                  5000


              +--------------------------------------------------+
              | Atomic coordinate, charge and isotop information |
              +--------------------------------------------------+

                    atomic coordinates            atom    charge  isotop
        -12.73810610    6.95393208   -0.00444107    o      8.000     0
        -10.81851422    5.62280383   -0.00523787    c      6.000     0
         -8.29645307    6.76399852   -0.00686661    c      6.000     0
         -6.10663713    5.27418023   -0.00281692    c      6.000     0
         -6.20416982    2.61126237   -0.00010859    c      6.000     0
         -8.59720588    1.43481195    0.00858637    c      6.000     0
        -10.79177645    2.86780414    0.00142065    c      6.000     0
         -3.00622321    6.28789029   -0.01467750    s     16.000     0
         -2.05030722    3.10117110    0.00011438    c      6.000     0
         -3.87426998    1.43292688    0.00294620    n      7.000     0
          0.62166469    2.60195526    0.00073857    c      6.000     0
          1.57753853   -0.60657125    0.01056185    s     16.000     0
          2.37224309    4.34793784   -0.01081297    n      7.000     0
          4.77599063    3.38234503   -0.00589116    c      6.000     0
          4.81337641    0.45473693   -0.00112249    c      6.000     0
          5.83903350   -0.22491203    1.68549146    h      1.000     0
          5.83707786   -0.23096876   -1.68461511    h      1.000     0
          6.73496506    4.58622453   -0.01282097    o      8.000     0
         -8.23843633    8.82763345   -0.01791837    h      1.000     0
        -13.97814383    1.24834513    0.00795414    br    35.000     0
         -8.69249729   -0.62834132    0.01638275    h      1.000     0
 
       center of nuclear mass  :   -5.47695081    2.94062890   -0.00005399
       center of nuclear charge:   -5.16653615    2.98021315   -0.00030050

              +--------------------------------------------------+
              |               basis set information              |
              +--------------------------------------------------+

              we will work with the 1s 3p 5d 7f 9g ... basis set
              ...i.e. with spherical basis functions...

   type   atoms  prim   cont   basis
   ---------------------------------------------------------------------------
    o        2     24     14   def2-SV(P)   [3s2p1d|7s4p1d]
    c       10     24     14   def2-SV(P)   [3s2p1d|7s4p1d]
    s        2     36     18   def2-SV(P)   [4s3p1d|10s7p1d]
    n        2     24     14   def2-SV(P)   [3s2p1d|7s4p1d]
    h        4      4      2   def2-SV(P)   [2s|4s]
    br       1     74     32   def2-SV(P)   [5s4p3d|14s10p6d]
   ---------------------------------------------------------------------------
   total:   21    498    272
   ---------------------------------------------------------------------------

   total number of primitive shells          :   88
   total number of contracted shells         :  120
   total number of cartesian basis functions :  291
   total number of SCF-basis functions       :  272


 integral neglect threshold       :  0.11E-10
 integral storage threshold THIZE :  0.10E-04
 integral storage threshold THIME :         5

 RI-J AUXILIARY BASIS SET information:

              we will work with the 1s 3p 5d 7f 9g ... basis set
              ...i.e. with spherical basis functions...

   type   atoms  prim   cont   basis
   ---------------------------------------------------------------------------
    o        2     70     49   def2-SV(P)   [6s4p3d1f1g|12s5p4d2f1g]
    c       10     70     49   def2-SV(P)   [6s4p3d1f1g|12s5p4d2f1g]
    s        2     77     51   def2-SV(P)   [8s4p3d1f1g|14s5p5d2f1g]
    n        2     70     49   def2-SV(P)   [6s4p3d1f1g|12s5p4d2f1g]
    h        4     16     11   def2-SV(P)   [3s1p1d|5s2p1d]
    br       1     89     58   def2-SV(P)   [8s4p3d2f1g|19s5p5d3f1g]
   ---------------------------------------------------------------------------
   total:   21   1287    890
   ---------------------------------------------------------------------------

   total number of primitive shells          :  140
   total number of contracted shells         :  282
   total number of cartesian basis functions : 1101
   total number of SCF-basis functions       :  890


 symmetry group of the molecule :   c1 

 the group has the following generators :
   c1(z)

    1 symmetry operations found

 there are 1 real representations :   a   

 maximum number of shells which are related by symmetry :  1


    mo occupation :
   irrep   mo's   occupied
    a      272       81
 
 number of basis functions   :                    272
 number of occupied orbitals :                     81
 
  
           ------------------
           density functional
           ------------------
 PBE0 hybrid functional
 exchange:    3/4 (LDA+PBE) + 1/4 HF
 correlation: LDA (PW) + PBE

 iterations will be done with small grid
  
 spherical integration : Lebedev's spherical grid
 spherical gridsize    :                     5
    i.e. gridpoints    :                   590
 value for diffuse not defined
 radial integration    : Chebyshev 2nd kind (scaling 3)
 radial gridsize       :                     8
 integration cells     :                    21
 partition function    : becke
 partition sharpness   :                     3
  

 biggest AO integral is expected to be    21.668154127
  
           ------------------------
               RI-J - INFORMATION
           ------------------------
 Contributions to RI integral batches: 
  neglected integral batches:                  2342
  direct contribution:                            0
  memory contribution:                  4918
 Memory core needed for (P|Q) and Cholesky      7 MByte
 Memory core minimum needed except of (P|Q)     1 MByte
 Total minimum memory core needed (sum)         7 MByte
  
 ****************************************
 Memory allocated for RI-J   243 MByte
 ****************************************
                                            

          ------------------------
          nuclear repulsion energy  :   1647.18293366    
          ------------------------


         -----------------
         -S,T+V- integrals
         -----------------

 1e-integrals will be neglected if expon. factor < 0.114844E-11
 
   Difference densities algorithm switched on.
   The maximal number of linear combinations of
   difference densities is                    20 .

 DIIS switched on: error vector is FDS-SDF
 Max. Iterations for DIIS is     :   4
 DIIS matrix (see manual) 
    Scaling factor of diagonals  :  1.200
    threshold for scaling factor :  0.000

 scf convergence criterion : increment of total energy < .1000000D-06
                  and increment of one-electron energy < .1000000D-03

  MOs are in ASCII format !


 automatic virtual orbital shift switched on 
      shift if e(lumo)-e(homo) < 0.10000000    


 reading orbital data $scfmo  from file mos
 orbital characterization : scfconv=7

 dump of DSCF restart information has been disabled !


 Starting SCF iterations

          Overall gridpoints after grid construction =        122141

 ITERATION  ENERGY          1e-ENERGY        2e-ENERGY     NORM[dD(SAO)]  TOL
   1  -4011.7269377588    -8854.8024980     3195.8926265    0.000D+00 0.115D-10
                            Exc = -172.720631335     Coul =  3424.27074376    
                            exK = -55.6574859012    
                              N = 161.99999801    
                            current damping = 0.700
 
          max. resid. norm for Fia-block=  3.907D-03 for orbital      1a         
          max. resid. fock norm         =  6.984D-03 for orbital      1a         

 ITERATION  ENERGY          1e-ENERGY        2e-ENERGY     NORM[dD(SAO)]  TOL
   2  -4011.7269851425    -8854.8147069     3195.9047881    0.232D-01 0.726D-11
                            Exc = -172.721933292      Eck =  3368.62672135    
                              N = 161.99999807    
                            current damping = 0.650
 
          Norm of current diis error: 0.78966E-02
          max. resid. norm for Fia-block=  1.609D-03 for orbital      1a         
          max. resid. fock norm         =  2.876D-03 for orbital      1a         

 ITERATION  ENERGY          1e-ENERGY        2e-ENERGY     NORM[dD(SAO)]  TOL
   3  -4011.7269929090    -8854.8171923     3195.9072658    0.854D-02 0.573D-11
                            Exc = -172.720898965      Eck =  3368.62816473    
                              N = 161.99999813    
                            current damping = 0.500
 
          Norm of current diis error: 0.59340E-02
          max. resid. norm for Fia-block=  6.339D-04 for orbital      1a         
          max. resid. fock norm         =  1.133D-03 for orbital      1a         

 ITERATION  ENERGY          1e-ENERGY        2e-ENERGY     NORM[dD(SAO)]  TOL
   4  -4011.7269981888    -8854.8122871     3195.9023552    0.256D-02 0.525D-11
                            Exc = -172.721510099      Eck =  3368.62386532    
                              N = 161.99999812    
                            current damping = 0.550
 
          Norm of current diis error: 0.19327E-02
          max. resid. norm for Fia-block=  2.113D-04 for orbital      1a         
          max. resid. fock norm         =  3.777D-04 for orbital      1a         

 ITERATION  ENERGY          1e-ENERGY        2e-ENERGY     NORM[dD(SAO)]  TOL
   5  -4011.7269986647    -8854.8157379     3195.9058056    0.149D-02 0.508D-11
                            Exc = -172.721449875      Eck =  3368.62725546    
                              N = 161.99999814    
                            current damping = 0.600
 
          Norm of current diis error: 0.12983E-02
          max. resid. norm for Fia-block=  7.499D-05 for orbital      1a         
          max. resid. fock norm         =  1.699D-04 for orbital    222a         
          mo-orthogonalization: Cholesky decomposition

 ITERATION  ENERGY          1e-ENERGY        2e-ENERGY     NORM[dD(SAO)]  TOL
   6  -4011.7269991940    -8854.8158464     3195.9059135    0.441D-03 0.494D-11
                            Exc = -172.721481145      Eck =  3368.62739467    
                              N = 161.99999815    
                            current damping = 0.450
 
          Norm of current diis error: 0.31098E-03
          max. resid. norm for Fia-block=  2.812D-05 for orbital      1a         
          max. resid. fock norm         =  5.693D-05 for orbital    234a         

 ITERATION  ENERGY          1e-ENERGY        2e-ENERGY     NORM[dD(SAO)]  TOL
   7  -4011.7269992062    -8854.8151126     3195.9051797    0.209D-03 0.486D-11
                            Exc = -172.721465243      Eck =  3368.62664494    
                              N = 161.99999815    
                            current damping = 0.500
 
          Norm of current diis error: 0.21982E-03
          max. resid. norm for Fia-block=  1.154D-05 for orbital     68a         
          max. resid. fock norm         =  2.188D-05 for orbital     40a         

 ENERGY CONVERGED !

          Overall gridpoints after grid construction =        372398

 ITERATION  ENERGY          1e-ENERGY        2e-ENERGY     NORM[dD(SAO)]  TOL
   8  -4011.7270019286    -8854.8150632     3195.9051276    0.536D-04 0.476D-11
                            Exc = -172.721481103      Eck =  3368.62660875    
                              N = 161.99999857    
                            current damping = 0.350
 
          Norm of current diis error: 0.96284E-04
          max. resid. norm for Fia-block=  8.611D-06 for orbital     80a         
          max. resid. fock norm         =  1.150D-05 for orbital    254a         

 End of SCF iterations

   convergence criteria satisfied after     8 iterations


                  ------------------------------------------ 
                 |  total energy      =  -4011.72700192860  |
                  ------------------------------------------ 
                 :  kinetic energy    =   4002.30486274078  :
                 :  potential energy  =  -8014.03186466938  :
                 :  virial theorem    =      1.99765135086  :
                 :  wavefunction norm =      1.00000000000  :
                  .......................................... 


 <geterg> : there is no data group $energy 


 orbitals $scfmo  will be written to file mos

    irrep                 77a         78a         79a         80a         81a   
 eigenvalues H         -0.17362    -0.16431    -0.12739    -0.11971    -0.07656
            eV          -4.7245     -4.4712     -3.4665     -3.2576     -2.0834
 occupation              2.0000      2.0000      2.0000      2.0000      2.0000 

    irrep                 82a         83a         84a         85a         86a   
 eigenvalues H          0.01638     0.10586     0.11775     0.12764     0.13249
            eV           0.4457      2.8807      3.2042      3.4734      3.6053
 
 
 
 
 ==============================================================================
                           electrostatic moments
 ==============================================================================

 reference point for electrostatic moments:    0.00000   0.00000   0.00000

 
              nuc           elec       ->  total
 ------------------------------------------------------------------------------
                          charge      
 ------------------------------------------------------------------------------
         161.000000    -162.000000      -1.000000
 
 ------------------------------------------------------------------------------
                       dipole moment  
 ------------------------------------------------------------------------------
   x    -831.812320     837.629829       5.817509
   y     479.814317    -484.864258      -5.049941
   z      -0.048380       0.053396       0.005016
 
   | dipole moment | =     7.7036 a.u. =    19.5806 debye 
 
 ------------------------------------------------------------------------------
                     quadrupole moment
 ------------------------------------------------------------------------------
  xx   12055.610746  -12247.448308    -191.837562
  yy    2375.210834   -2499.167790    -123.956956
  zz       5.690366     -98.540366     -92.850000
  xy   -2596.836782    2623.023580      26.186799
  xz      -3.348661       3.378782       0.030121
  yz      -2.963915       2.997389       0.033474
 
     1/3  trace=    -136.214840
     anisotropy=      98.712865
 
 ==============================================================================
 


    ------------------------------------------------------------------------
         total  cpu-time :  1 minutes and 12 seconds
         total wall-time :  1 minutes and 12 seconds
    ------------------------------------------------------------------------

   ****  ridft : all done  ****


    2018-02-09 17:10:54.538 


 egrad (missouri) : TURBOMOLE V7.2 ( 21454 ) 4 Oct 2017 at 12:24:43
 Copyright (C) 2017 TURBOMOLE GmbH, Karlsruhe


    2018-02-09 17:10:54.557 




                               e g r a d

                             TURBOMOLE GmbH


             integral direct evaluation of excited state
                     and polarizability gradients
                 and first-order nonadiabatic couplings



          references (see also programs escf, dscf and ridft) 

          review 
          F. Furche and D. Rappoport,  
          "Density functional methods for excited states: 
          equilibrium structure and electronic spectra",
          ch. III of "Computational Photochemistry", ed. by 
          M. Olivucci, vol. 16 of "Theoretical and Computational 
          Chemistry", Elsevier, Amsterdam, 2005.

          nonorthonormal Krylov space methods 
          F. Furche, B. T. Krull, B. D. Nguyen, J. Kwon, 
          J. Chem. Phys. 144 (2016), 174105.

          RI-J method 
          D. Rappoport and F. Furche, 
          J. Chem. Phys. 122 (2005), 064105.

          Lagrangian method, implementation, benchmarks 
          F. Furche and R. Ahlrichs,
          J. Chem. Phys. 117 (2002), 7433;
          J. Chem. Phys. 121 (2004), 12772 (E).

          Polarizability derivatives, Raman intensities 
          D. Rappoport and F. Furche, 
          J. Chem. Phys. 126 (2007), 201104.

          First-order nonadiabatic couplings 
          R. Send and F. Furche, 
          J. Chem. Phys. 132 (2010), 044107.
                                     




              +--------------------------------------------------+
              | Atomic coordinate, charge and isotop information |
              +--------------------------------------------------+

                    atomic coordinates            atom    charge  isotop
        -12.73810610    6.95393208   -0.00444107    o      8.000     0
        -10.81851422    5.62280383   -0.00523787    c      6.000     0
         -8.29645307    6.76399852   -0.00686661    c      6.000     0
         -6.10663713    5.27418023   -0.00281692    c      6.000     0
         -6.20416982    2.61126237   -0.00010859    c      6.000     0
         -8.59720588    1.43481195    0.00858637    c      6.000     0
        -10.79177645    2.86780414    0.00142065    c      6.000     0
         -3.00622321    6.28789029   -0.01467750    s     16.000     0
         -2.05030722    3.10117110    0.00011438    c      6.000     0
         -3.87426998    1.43292688    0.00294620    n      7.000     0
          0.62166469    2.60195526    0.00073857    c      6.000     0
          1.57753853   -0.60657125    0.01056185    s     16.000     0
          2.37224309    4.34793784   -0.01081297    n      7.000     0
          4.77599063    3.38234503   -0.00589116    c      6.000     0
          4.81337641    0.45473693   -0.00112249    c      6.000     0
          5.83903350   -0.22491203    1.68549146    h      1.000     0
          5.83707786   -0.23096876   -1.68461511    h      1.000     0
          6.73496506    4.58622453   -0.01282097    o      8.000     0
         -8.23843633    8.82763345   -0.01791837    h      1.000     0
        -13.97814383    1.24834513    0.00795414    br    35.000     0
         -8.69249729   -0.62834132    0.01638275    h      1.000     0
 
       center of nuclear mass  :   -5.47695081    2.94062890   -0.00005399
       center of nuclear charge:   -5.16653615    2.98021315   -0.00030050

              +--------------------------------------------------+
              |               basis set information              |
              +--------------------------------------------------+

              we will work with the 1s 3p 5d 7f 9g ... basis set
              ...i.e. with spherical basis functions...

   type   atoms  prim   cont   basis
   ---------------------------------------------------------------------------
    o        2     24     14   def2-SV(P)   [3s2p1d|7s4p1d]
    c       10     24     14   def2-SV(P)   [3s2p1d|7s4p1d]
    s        2     36     18   def2-SV(P)   [4s3p1d|10s7p1d]
    n        2     24     14   def2-SV(P)   [3s2p1d|7s4p1d]
    h        4      4      2   def2-SV(P)   [2s|4s]
    br       1     74     32   def2-SV(P)   [5s4p3d|14s10p6d]
   ---------------------------------------------------------------------------
   total:   21    498    272
   ---------------------------------------------------------------------------

   total number of primitive shells          :   88
   total number of contracted shells         :  120
   total number of cartesian basis functions :  291
   total number of SCF-basis functions       :  272


 residuum convergence criterium   :  0.10E-04


 integral neglect threshold       :  0.11E-10
 integral storage threshold THIZE :  0.10E-04
 integral storage threshold THIME :         5

 
             FOUND RI-J FLAG !
 
  
 AUXILIARY BASIS SET information:

              we will work with the 1s 3p 5d 7f 9g ... basis set
              ...i.e. with spherical basis functions...

   type   atoms  prim   cont   basis
   ---------------------------------------------------------------------------
    o        2     70     49   def2-SV(P)   [6s4p3d1f1g|12s5p4d2f1g]
    c       10     70     49   def2-SV(P)   [6s4p3d1f1g|12s5p4d2f1g]
    s        2     77     51   def2-SV(P)   [8s4p3d1f1g|14s5p5d2f1g]
    n        2     70     49   def2-SV(P)   [6s4p3d1f1g|12s5p4d2f1g]
    h        4     16     11   def2-SV(P)   [3s1p1d|5s2p1d]
    br       1     89     58   def2-SV(P)   [8s4p3d2f1g|19s5p5d3f1g]
   ---------------------------------------------------------------------------
   total:   21   1287    890
   ---------------------------------------------------------------------------

   total number of primitive shells          :  140
   total number of contracted shells         :  282
   total number of cartesian basis functions : 1101
   total number of SCF-basis functions       :  890

 RPA SINGLET-EXCITATION-CALCULATION 
 
             FOUND DFT-FLAG !
 

 symmetry group of the molecule :   c1 

 the group has the following generators :
   c1(z)

    1 symmetry operations found

 there are 1 real representations :   a   

 maximum number of shells which are related by symmetry :  1

 IRREP of excited state :   a   
 

 determining totally symmetric integral contributions 
    - equivalent to irreducible tensor elements - 
 which can be formed within each triple of representations :

             representation triple      contributions

              a     a     a               1

    mo occupation :
   irrep   mo's   occupied
    a      272       81
 
 number of basis functions   :                    272
 number of occupied orbitals :                     81
 
  
           ------------------
           density functional
           ------------------
 PBE0 hybrid functional
 exchange:    3/4 (LDA+PBE) + 1/4 HF
 correlation: LDA (PW) + PBE

 iterations will be done with small grid
  
 spherical integration : Lebedev's spherical grid
 spherical gridsize    :                     5
    i.e. gridpoints    :                   590
 value for diffuse not defined
 radial integration    : Chebyshev 2nd kind (scaling 3)
 radial gridsize       :                     8
 integration cells     :                    21
 partition function    : becke
 partition sharpness   :                     3
  
  
           ----------------------
               RI - INFORMATION
           ----------------------

 biggest AO integral is expected to be    21.668154127

 Threshold for integral neglect (rithr2):   0.11E-10
 Threshold for integral neglect (rithr1):   0.11E-10

 Contributions to RI integral batches: 
  neglected integral batches:                  2188
  direct contribution:                            0
  memory contribution:                  5072
 Core memory available (ricore)            5000 MiB
 Core memory needed for (P|Q) and Cholesky 7 MiB
 Core memory used for integrals            244 MiB
  
 ****************************************
 Memory allocated for RIDFT 250 MiB
 ****************************************
                                            
  MOs are in ASCII format !


 reading orbital data $scfmo  from file mos
 orbital characterization : scfconv=7
 preparing numerical integration ....
          Overall gridpoints after grid construction =        122141

 Calculating ground state density on molecular grid

 Integral of ground state density: N =   161.9999981461593    



 number of non-frozen orbitals          :   272
 number of non-frozen occupied orbitals :    81



                        -------------------
                         excitation vector 
                        -------------------


 dimension of super-tensorspace: 2

          IRREP   tensor space dimension   number of roots

           a             15471                   1

 maximum number of Davidson iterations set to   50


 machine precision: 2.22D-16


 logfile sing_a    will be constructed


                       Nonorthonormal Krylov Space Iteration


 total number of roots to be determined:   1


 maximum core memory set to   500 MB,
 corresponding to      379 vectors in CAO basis


 maximum number of simultaneously treated vectors (including degeneracy):        2


 Iteration IRREP Converged      Max. Euclidean
                 roots          residual norm

    1       a        0        3.023591258101970D-02
 
    2       a        0        1.616309689893723D-02
 
    3       a        0        1.759730631654052D-02
 
    4       a        0        4.843796830618429D-02
 
    5       a        0        2.266994187728084D-02
 
    6       a        0        8.343026941960978D-03
 
    7       a        0        3.953827898535881D-03
 
    8       a        0        1.958805369964135D-03
 
    9       a        0        9.550580699424484D-04
 
   10       a        0        4.806772019791120D-04
 
   11       a        0        1.890877652127816D-04
 
   12       a        0        8.708060696256167D-05
 
   13       a        0        2.755489985073820D-05
 
   14       a        0        1.417202672436368D-05
 
   15       a        1        5.535000533484022D-06
 

 converged!


 Switching to fine grid

 preparing numerical integration ....
          Overall gridpoints after grid construction =        372398

 Calculating ground state density on molecular grid

 Integral of ground state density: N =   161.9999985687371    



 Iteration IRREP Converged      Max. Euclidean
                 roots          residual norm

   16       a        1        9.060322197836239D-06
 

 converged!

 Eigenpairs written on logfile sing_a   



 IRREP   Vector     Eigenvalue           Euclidean residual norm

  a         1    8.771038167785367D-02    9.060322197836239D-06
 




                    Selection rules for point group c1  


 Subduction with respect to c1  :

    Polar vector representation: a                           

    Axial vector representation: a                           

    Symmetric second rank tensor representation: a                           




                            Ground state


 Total energy:                           -4011.727001929000    

 Charge:

               elec          nuc         total

          -162.000000   161.000000    -1.000000


 Electric dipole moment:

               elec          nuc         total   

    x      837.629829  -831.812320     5.817509    Norm:              7.703592
    y     -484.864258   479.814317    -5.049941
    z        0.053396    -0.048380     0.005016    Norm / debye:     19.580727


 Electric quadrupole moment:

               elec          nuc         total   

   xx   -12247.448308 12055.610746  -191.837562
   yy    -2499.167790  2375.210834  -123.956956    1/3*trace:      -136.214840
   zz      -98.540366     5.690366   -92.850000
   xy     2623.023580 -2596.836782    26.186799
   xz        3.378782    -3.348661     0.030121    Anisotropy:       98.712865
   yz        2.997389    -2.963915     0.033474



 ==============================================================================

                              I R R E P   a   

 ==============================================================================


 Excitation is electric dipole allowed

 Excitation is magnetic dipole allowed

 Excitation is electric quadrupole allowed




                         1 singlet a excitation


 Total energy:                           -4011.639291547322    

 Excitation energy:                      0.8771038167785367E-01

 Excitation energy / eV:                  2.386721944057986    

 Excitation energy / nm:                  519.4750243745031    

 Excitation energy / cm^(-1):             19250.20362730298    


 Oscillator strength:

    velocity representation:             0.4330231944551313    

    length representation:               0.4918189832632913    

    mixed representation:                0.4614841911584249    


 Rotatory strength:

    velocity representation:             0.4706181959498522E-05

    velocity rep. / 10^(-40)erg*cm^3:    0.3040420214678079    

    length representation:               0.3765836721122989E-05

    length rep. / 10^(-40)erg*cm^3:      0.2432911899840652    


 Dominant contributions:

      occ. orbital   energy / eV   virt. orbital     energy / eV   |coeff.|^2*100
       81 a              -2.08          82 a               0.45       92.1
 

 Change of electron number:

            -0.000000


 Electric transition dipole moment (velocity rep.):

    x       -2.701893        Norm:                  2.721296
    y        0.324378
    z        0.001124        Norm / debye:          6.916896


 Electric transition dipole moment (length rep.):

    x       -2.878606        Norm:                  2.900165
    y        0.352966
    z        0.000522        Norm / debye:          7.371541


 Magnetic transition dipole moment / i:

    x       -0.000001        Norm:                  0.001841
    y       -0.000001
    z        0.001841        Norm / Bohr mag.:      0.504691


 Electric quadrupole transition moment:

   xx       23.629847
   yy        2.526653        1/3*trace:             8.677203
   zz       -0.124893
   xy      -11.065753
   xz        0.001566        Anisotropy:           29.591964
   yz        0.002517
 

 Excited state no.    1 chosen for optimization


                       ----------------------
                        CPKS right-hand side 
                       ----------------------


          IRREP   tensor space dimension   number of roots

           a             15471                   1

                          ----------------
                           CPKS equations 
                          ----------------


 logfile dipl_a    will be constructed

 Switching to coarse grid

 preparing numerical integration ....
          Overall gridpoints after grid construction =        122141


                       Nonorthonormal Krylov Space Iteration


 total number of roots to be determined:   1


 maximum core memory set to   500 MB,
 corresponding to      754 vectors in CAO basis


 maximum number of simultaneously treated vectors (including degeneracy):        1


 Iteration IRREP Converged      Max. Euclidean
                 roots          residual norm

    1       a        0        1.059028566072513D-01
 
    2       a        0        4.914833872121478D-02
 
    3       a        0        2.025211816686767D-02
 
    4       a        0        8.042795907906717D-03
 
    5       a        0        3.386338383817965D-03
 
    6       a        0        9.654507147631489D-04
 
    7       a        0        3.919300993719684D-04
 
    8       a        0        1.388365982908139D-04
 
    9       a        0        5.941206359916007D-05
 
   10       a        0        1.634323037906375D-05
 
   11       a        1        6.844605439343564D-06
 

 converged!


 Switching to fine grid

 preparing numerical integration ....
          Overall gridpoints after grid construction =        372398

 Iteration IRREP Converged      Max. Euclidean
                 roots          residual norm

   12       a        0        1.592923305583005D-05
 

 NOTE: Residual norms are larger than 1.00D-05 due to mgrid option!

 Eigenpairs written on logfile dipl_a   



 IRREP   Vector     Frequency            Euclidean residual norm

  a         1    0.000000000000000D+00    1.592923305583005D-05
 

                          -------------------
                           relaxed densities 
                          -------------------


    ----------------------------------------
     S+T+V CONTRIBUTIONS TO ENERGY GRADIENT 
    ----------------------------------------

 1e-integral 1st. derivatives will be neglected if expon. factor < 0.100000E-10


    -----------------------------------------------
     TWO ELECTRON CONTRIBUTIONS TO ENERGY GRADIENT 
    -----------------------------------------------

 setting up bound for integral derivative estimation

 increment for numerical differentiation : 0.00050000

 biggest AO integral is expected to be    21.668154127
 biggest cartesian 1st derivative AO integral is expected to be    83.347447328

 biggest 1-particle AO density matrix element is expected to be    3.2085058785

 core memory to be involved in 2e-gradient :
   symmetry shell pair data              :         1
   two particle density+dens. estimates  :      8556
   derivative integrals                  :      8498
   derivative integral bound             :     21780
   totally                               :     30276


 setting up bound for integral derivative estimation

 increment for numerical differentiation : 0.00050000

 biggest AO integral is expected to be    21.668154127
 biggest cartesian 1st derivative AO integral is expected to be    83.347447328

 2e-integral 1st. derivatives will be neglected if expon. factor < 0.100000E-06
 outer boundary for 2e-integral derivative neglection is 0.161899E-08

 Integrated ground state density     :   161.9999985687349    


          ------------------------------------------------
           cartesian gradient of the energy (hartree/bohr)
          ------------------------------------------------

  ATOM      1 o           2 c           3 c           4 c           5 c 
dE/dx  0.3252026D-02 -0.4350317D-02  0.2298516D-02  0.1075133D-02  0.1530736D-02
dE/dy -0.2758066D-02  0.3154189D-02  0.6241889D-03 -0.7367524D-04  0.8974823D-03
dE/dz  0.1683191D-03 -0.3463443D-03  0.2565504D-03  0.5399722D-03 -0.5971431D-03

  ATOM      6 c           7 c           8 s           9 c          10 n 
dE/dx  0.2485147D-02 -0.2995221D-02 -0.1105728D-02  0.7902552D-03 -0.2103612D-02
dE/dy -0.2545605D-02  0.6657052D-03 -0.1391426D-03 -0.1656600D-02  0.1497086D-02
dE/dz  0.3684097D-03 -0.1459016D-03 -0.3465186D-03  0.3314492D-03 -0.1093983D-03

  ATOM     11 c          12 s          13 n          14 c          15 c 
dE/dx  0.2463164D-03  0.7074246D-03 -0.7619548D-03  0.1215739D-02 -0.1445070D-02
dE/dy -0.1883352D-03  0.6967702D-03  0.1088983D-02 -0.1016091D-02  0.1449139D-03
dE/dz  0.1946718D-03  0.1148474D-03 -0.3334104D-03  0.5812917D-03 -0.9013154D-03

  ATOM     16 h          17 h          18 o          19 h          20 br
dE/dx  0.3897416D-04  0.4466753D-04 -0.4083307D-03 -0.3997350D-03  0.6194574D-04
dE/dy -0.4425988D-04  0.1640200D-03 -0.1115411D-03 -0.4556984D-03  0.3083647D-04
dE/dz  0.3431210D-03  0.1657183D-03 -0.1557466D-03 -0.1269104D-03 -0.4081277D-05

  ATOM     21 h 
dE/dx -0.1914360D-03
dE/dy  0.2243804D-04
dE/dz  0.2634114D-05
 
 resulting FORCE  (fx,fy,fz) = (-.145D-04,-.240D-05,0.215D-06)
 resulting MOMENT (mx,my,mz) = (-.138D-05,0.144D-05,-.450D-04)


 **********************************************************************
  |maximum component of gradient| : 0.43503173E-02  (atom  2 c )       
   gradient norm                  : 0.10061600E-01
 **********************************************************************

 exx =      -0.008539 eyy =      -0.004964 ezz =       0.000312
 eyz =      -0.000363 exz =       0.000026 exy =       0.005936


 <getgrd> : data group $grad  is missing 

   ***  cartesian gradients written onto <gradient>  ***
 
 
 
 ==============================================================================
                           electrostatic moments
 ==============================================================================

 reference point for electrostatic moments:    0.00000   0.00000   0.00000

 
              nuc           gs,e       ->  gs,tot          excit     ->  total
 ------------------------------------------------------------------------------
                          charge      
 ------------------------------------------------------------------------------
         161.000000    -162.000000      -1.000000      -0.000000      -1.000000
 
 ------------------------------------------------------------------------------
                       dipole moment  
 ------------------------------------------------------------------------------
   x    -831.812320     837.629829       5.817509      -0.943575       4.873934
   y     479.814317    -484.864258      -5.049941       0.855236      -4.194705
   z      -0.048380       0.053396       0.005016      -0.002078       0.002938
 
   | dipole moment | =     6.4305 a.u. =    16.3446 debye 
 
 ------------------------------------------------------------------------------
                     quadrupole moment
 ------------------------------------------------------------------------------
  xx   12055.610746  -12247.448308    -191.837562       1.074436    -190.763126
  yy    2375.210834   -2499.167790    -123.956956       7.397593    -116.559364
  zz       5.690366     -98.540366     -92.850000       0.110094     -92.739907
  xy   -2596.836782    2623.023580      26.186799      -8.575676      17.611123
  xz      -3.348661       3.378782       0.030121       0.014732       0.044853
  yz      -2.963915       2.997389       0.033474      -0.010455       0.023018
 
     1/3  trace=    -133.354132
     anisotropy=      93.656397
 
 ==============================================================================
 


    ------------------------------------------------------------------------
         total  cpu-time :  6 minutes and 16 seconds
         total wall-time :  6 minutes and 16 seconds
    ------------------------------------------------------------------------

   ****  egrad : all done  ****


    2018-02-09 17:17:10.132 

$dipole from egrad
  x     4.87393437984770    y    -4.19470470274956    z     0.00293774106661    a.u.
   | dipole | =   16.3447179299  debye
/work/bdnguye2/luc_project/5_brluc/ex_geo_opt/save/numforce/KraftWerk/p045
