 operating system is UNIX !

 ridft (missouri) : TURBOMOLE V7.2 ( 21454 ) 4 Oct 2017 at 12:48:15
 Copyright (C) 2017 TURBOMOLE GmbH, Karlsruhe


    2018-02-09 17:59:25.157 



                                  r i d f t

                        DFT program with RI approximation 
                                for coulomb part 




                                                 
                                 References:     
                                                 
          TURBOMOLE:                             
              R. Ahlrichs, M. Baer, M. Haeser, H. Horn, and
              C. Koelmel
              Electronic structure calculations on workstation
              computers: the program system TURBOMOLE
              Chem. Phys. Lett. 162: 165 (1989)
          Density Functional:                              
              O. Treutler and R. Ahlrichs                      
              Efficient Molecular Numerical Integration Schemes
              J. Chem. Phys. 102: 346 (1995)                   
          Parallel Version:                                
              Performance of parallel TURBOMOLE for Density    
              Functional Calculations                          
              M. v. Arnim and R. Ahlrichs                      
              J. Comp. Chem. 19: 1746 (1998)                   
          RI-J Method:                                     
              Auxiliary Basis Sets to approximate Coulomb      
              Potentials                                       
              Chem. Phys. Lett. 240: 283 (1995)                
              K. Eichkorn, O. Treutler, H. Oehm, M. Haeser     
              and R. Ahlrichs                                  
              Chem. Phys. Lett. 242: 652 (1995)                
                                                           
              Auxiliary Basis Sets for Main Row Atoms and their
              Use to approximate Coulomb Potentials            
              K. Eichkorn, F. Weigend, O. Treutler and         
              R. Ahlrichs                                      
              Theo. Chem. Acc. 97: 119 (1997)                   
                                                           
              Accurate Coulomb-fitting basis sets for H to Rn 
              F. Weigend                                        
              Phys. Chem. Chem. Phys. 8: 1057 (2006)            
                                                           
          Multipole accelerated RI-J (MARI-J):             
              Fast evaluation of the Coulomb potential for     
              electron densities using multipole accelerated   
              resolution of identity approximation             
              M. Sierka, A. Hogekamp and R. Ahlrichs           
              J. Chem. Phys. 118: 9136 (2003)                  
          RI-JK Method:                                     
              A fully direct RI-HF algorithm: Implementation,
              optimised auxiliary basis sets, demonstration of
              accuracy and efficiency                         
              F. Weigend                                      
              Phys. Chem. Chem. Phys. 4: 4285 (2002)           
          Two-component HF and DFT with spin-orbit coupling:  
              Self-consistent treatment of spin-orbit         
              interactions with efficient Hartree-Fock and    
              density functional methods                      
              M. K. Armbruster, F. Weigend, C. van Wüllen and 
              W. Klopper                                      
              Phys. Chem. Chem. Phys. 10: 1748 (2008)         
          Relativistic all-electron 2c calculations           
              An efficient implementation of two-component    
              relativistic exact-decoupling methods for large 
              molecules                                       
              D. Peng, N. Middendorf, F. Weigend, M. Reiher   
              J. Chem. Phys. 138, 184105 (2013)               
                                         




              +--------------------------------------------------+
              |      general information about current run       |
              +--------------------------------------------------+

 
 PBE0 hybrid functional
 exchange:    3/4 (LDA+PBE) + 1/4 HF
 correlation: LDA (PW) + PBE
 A Hybrid-DFT calculation using the RI-J approximation will be carried out.
 Allocatable memory for RI due to $ricore (MB):                  5000


              +--------------------------------------------------+
              | Atomic coordinate, charge and isotop information |
              +--------------------------------------------------+

                    atomic coordinates            atom    charge  isotop
        -12.73969118    6.95388125   -0.00886413    o      8.000     0
        -10.81894091    5.61646496   -0.00626268    c      6.000     0
         -8.30340135    6.76241262   -0.01302238    c      6.000     0
         -6.10846413    5.27001006   -0.00435158    c      6.000     0
         -6.20561999    2.61062042    0.00129746    c      6.000     0
         -8.59647234    1.43861185    0.01088990    c      6.000     0
        -10.78650998    2.87147780    0.00699274    c      6.000     0
         -3.00177962    6.29264374   -0.01036054    s     16.000     0
         -2.04721589    3.10436315    0.00114241    c      6.000     0
         -3.87306240    1.43197833    0.00167524    n      7.000     0
          0.61924055    2.59823114   -0.00241242    c      6.000     0
          1.57194364   -0.60966353    0.00414067    s     16.000     0
          2.36983344    4.34198595   -0.01221319    n      7.000     0
          4.77177342    3.38194276   -0.00742519    c      6.000     0
          4.81367957    0.45629358   -0.00055426    c      6.000     0
          5.84344061   -0.22450063    1.69189944    h      1.000     0
          5.84016378   -0.23077063   -1.67908877    h      1.000     0
          6.73567761    4.59304468   -0.01149274    o      8.000     0
         -8.23171530    8.82939592   -0.01263015    h      1.000     0
        -13.97638802    1.25121141    0.00911457    br    35.000     0
         -8.69249729   -0.62834132    0.01134322    h      1.000     0
 
       center of nuclear mass  :   -5.47697505    2.94136202   -0.00029680
       center of nuclear charge:   -5.16657057    2.98087946   -0.00054559

              +--------------------------------------------------+
              |               basis set information              |
              +--------------------------------------------------+

              we will work with the 1s 3p 5d 7f 9g ... basis set
              ...i.e. with spherical basis functions...

   type   atoms  prim   cont   basis
   ---------------------------------------------------------------------------
    o        2     24     14   def2-SV(P)   [3s2p1d|7s4p1d]
    c       10     24     14   def2-SV(P)   [3s2p1d|7s4p1d]
    s        2     36     18   def2-SV(P)   [4s3p1d|10s7p1d]
    n        2     24     14   def2-SV(P)   [3s2p1d|7s4p1d]
    h        4      4      2   def2-SV(P)   [2s|4s]
    br       1     74     32   def2-SV(P)   [5s4p3d|14s10p6d]
   ---------------------------------------------------------------------------
   total:   21    498    272
   ---------------------------------------------------------------------------

   total number of primitive shells          :   88
   total number of contracted shells         :  120
   total number of cartesian basis functions :  291
   total number of SCF-basis functions       :  272


 integral neglect threshold       :  0.11E-10
 integral storage threshold THIZE :  0.10E-04
 integral storage threshold THIME :         5

 RI-J AUXILIARY BASIS SET information:

              we will work with the 1s 3p 5d 7f 9g ... basis set
              ...i.e. with spherical basis functions...

   type   atoms  prim   cont   basis
   ---------------------------------------------------------------------------
    o        2     70     49   def2-SV(P)   [6s4p3d1f1g|12s5p4d2f1g]
    c       10     70     49   def2-SV(P)   [6s4p3d1f1g|12s5p4d2f1g]
    s        2     77     51   def2-SV(P)   [8s4p3d1f1g|14s5p5d2f1g]
    n        2     70     49   def2-SV(P)   [6s4p3d1f1g|12s5p4d2f1g]
    h        4     16     11   def2-SV(P)   [3s1p1d|5s2p1d]
    br       1     89     58   def2-SV(P)   [8s4p3d2f1g|19s5p5d3f1g]
   ---------------------------------------------------------------------------
   total:   21   1287    890
   ---------------------------------------------------------------------------

   total number of primitive shells          :  140
   total number of contracted shells         :  282
   total number of cartesian basis functions : 1101
   total number of SCF-basis functions       :  890


 symmetry group of the molecule :   c1 

 the group has the following generators :
   c1(z)

    1 symmetry operations found

 there are 1 real representations :   a   

 maximum number of shells which are related by symmetry :  1


    mo occupation :
   irrep   mo's   occupied
    a      272       81
 
 number of basis functions   :                    272
 number of occupied orbitals :                     81
 
  
           ------------------
           density functional
           ------------------
 PBE0 hybrid functional
 exchange:    3/4 (LDA+PBE) + 1/4 HF
 correlation: LDA (PW) + PBE

 iterations will be done with small grid
  
 spherical integration : Lebedev's spherical grid
 spherical gridsize    :                     5
    i.e. gridpoints    :                   590
 value for diffuse not defined
 radial integration    : Chebyshev 2nd kind (scaling 3)
 radial gridsize       :                     8
 integration cells     :                    21
 partition function    : becke
 partition sharpness   :                     3
  

 biggest AO integral is expected to be    21.668154127
  
           ------------------------
               RI-J - INFORMATION
           ------------------------
 Contributions to RI integral batches: 
  neglected integral batches:                  2341
  direct contribution:                            0
  memory contribution:                  4919
 Memory core needed for (P|Q) and Cholesky      7 MByte
 Memory core minimum needed except of (P|Q)     1 MByte
 Total minimum memory core needed (sum)         7 MByte
  
 ****************************************
 Memory allocated for RI-J   243 MByte
 ****************************************
                                            

          ------------------------
          nuclear repulsion energy  :   1647.15277614    
          ------------------------


         -----------------
         -S,T+V- integrals
         -----------------

 1e-integrals will be neglected if expon. factor < 0.114844E-11
 
   Difference densities algorithm switched on.
   The maximal number of linear combinations of
   difference densities is                    20 .

 DIIS switched on: error vector is FDS-SDF
 Max. Iterations for DIIS is     :   4
 DIIS matrix (see manual) 
    Scaling factor of diagonals  :  1.200
    threshold for scaling factor :  0.000

 scf convergence criterion : increment of total energy < .1000000D-06
                  and increment of one-electron energy < .1000000D-03

  MOs are in ASCII format !


 automatic virtual orbital shift switched on 
      shift if e(lumo)-e(homo) < 0.10000000    


 reading orbital data $scfmo  from file mos
 orbital characterization : scfconv=7

 dump of DSCF restart information has been disabled !


 Starting SCF iterations

          Overall gridpoints after grid construction =        122138

 ITERATION  ENERGY          1e-ENERGY        2e-ENERGY     NORM[dD(SAO)]  TOL
   1  -4011.7265303835    -8854.7616042     3195.8822977    0.000D+00 0.115D-10
                            Exc = -172.718525699     Coul =  3424.25735632    
                            exK = -55.6565329250    
                              N = 161.99999833    
                            current damping = 0.700
 
          max. resid. norm for Fia-block=  3.301D-03 for orbital      1a         
          max. resid. fock norm         =  6.620D-03 for orbital    199a         

 ITERATION  ENERGY          1e-ENERGY        2e-ENERGY     NORM[dD(SAO)]  TOL
   2  -4011.7265736149    -8854.7538293     3195.8744796    0.181D-01 0.726D-11
                            Exc = -172.717304442      Eck =  3368.59178400    
                              N = 161.99999831    
                            current damping = 0.650
 
          Norm of current diis error: 0.69827E-02
          max. resid. norm for Fia-block=  1.359D-03 for orbital      1a         
          max. resid. fock norm         =  2.758D-03 for orbital    199a         

 ITERATION  ENERGY          1e-ENERGY        2e-ENERGY     NORM[dD(SAO)]  TOL
   3  -4011.7265813595    -8854.7464780     3195.8671205    0.576D-02 0.566D-11
                            Exc = -172.717718412      Eck =  3368.58483890    
                              N = 161.99999832    
                            current damping = 0.500
 
          Norm of current diis error: 0.43037E-02
          max. resid. norm for Fia-block=  5.356D-04 for orbital      1a         
          max. resid. fock norm         =  1.044D-03 for orbital    197a         

 ITERATION  ENERGY          1e-ENERGY        2e-ENERGY     NORM[dD(SAO)]  TOL
   4  -4011.7265841550    -8854.7510936     3195.8717333    0.233D-02 0.521D-11
                            Exc = -172.717532976      Eck =  3368.58926630    
                              N = 161.99999829    
                            current damping = 0.550
 
          Norm of current diis error: 0.20051E-02
          max. resid. norm for Fia-block=  1.786D-04 for orbital      1a         
          max. resid. fock norm         =  3.794D-04 for orbital    198a         

 ITERATION  ENERGY          1e-ENERGY        2e-ENERGY     NORM[dD(SAO)]  TOL
   5  -4011.7265848293    -8854.7509196     3195.8715587    0.124D-02 0.501D-11
                            Exc = -172.717403931      Eck =  3368.58896259    
                              N = 161.99999831    
                            current damping = 0.600
 
          Norm of current diis error: 0.96706E-03
          max. resid. norm for Fia-block=  6.336D-05 for orbital      1a         
          max. resid. fock norm         =  1.401D-04 for orbital    197a         
          mo-orthogonalization: Cholesky decomposition

 ITERATION  ENERGY          1e-ENERGY        2e-ENERGY     NORM[dD(SAO)]  TOL
   6  -4011.7265852250    -8854.7488837     3195.8695224    0.458D-03 0.489D-11
                            Exc = -172.717486091      Eck =  3368.58700845    
                              N = 161.99999832    
                            current damping = 0.450
 
          Norm of current diis error: 0.32848E-03
          max. resid. norm for Fia-block=  2.736D-05 for orbital     59a         
          max. resid. fock norm         =  5.018D-05 for orbital    199a         

 ITERATION  ENERGY          1e-ENERGY        2e-ENERGY     NORM[dD(SAO)]  TOL
   7  -4011.7265852386    -8854.7493645     3195.8700031    0.151D-03 0.480D-11
                            Exc = -172.717463910      Eck =  3368.58746704    
                              N = 161.99999832    
                            current damping = 0.500
 
          Norm of current diis error: 0.19518E-03
          max. resid. norm for Fia-block=  1.052D-05 for orbital     81a         
          max. resid. fock norm         =  1.963D-05 for orbital    196a         

 ENERGY CONVERGED !

          Overall gridpoints after grid construction =        372405

 ITERATION  ENERGY          1e-ENERGY        2e-ENERGY     NORM[dD(SAO)]  TOL
   8  -4011.7265887037    -8854.7495125     3195.8701477    0.540D-04 0.471D-11
                            Exc = -172.717470344      Eck =  3368.58761804    
                              N = 161.99999851    
                            current damping = 0.350
 
          Norm of current diis error: 0.82188E-04
          max. resid. norm for Fia-block=  6.332D-06 for orbital     77a         
          max. resid. fock norm         =  1.196D-05 for orbital    247a         

 End of SCF iterations

   convergence criteria satisfied after     8 iterations


                  ------------------------------------------ 
                 |  total energy      =  -4011.72658870367  |
                  ------------------------------------------ 
                 :  kinetic energy    =   4002.28276124193  :
                 :  potential energy  =  -8014.00934994560  :
                 :  virial theorem    =      1.99764594440  :
                 :  wavefunction norm =      1.00000000000  :
                  .......................................... 


 <geterg> : there is no data group $energy 


 orbitals $scfmo  will be written to file mos

    irrep                 77a         78a         79a         80a         81a   
 eigenvalues H         -0.17336    -0.16455    -0.12781    -0.11934    -0.07689
            eV          -4.7175     -4.4778     -3.4780     -3.2475     -2.0923
 occupation              2.0000      2.0000      2.0000      2.0000      2.0000 

    irrep                 82a         83a         84a         85a         86a   
 eigenvalues H          0.01562     0.10549     0.11712     0.12676     0.13154
            eV           0.4250      2.8706      3.1870      3.4494      3.5793
 
 
 
 
 ==============================================================================
                           electrostatic moments
 ==============================================================================

 reference point for electrostatic moments:    0.00000   0.00000   0.00000

 
              nuc           elec       ->  total
 ------------------------------------------------------------------------------
                          charge      
 ------------------------------------------------------------------------------
         161.000000    -162.000000      -1.000000
 
 ------------------------------------------------------------------------------
                       dipole moment  
 ------------------------------------------------------------------------------
   x    -831.817862     837.632245       5.814383
   y     479.921594    -484.981328      -5.059735
   z      -0.087841       0.095187       0.007346
 
   | dipole moment | =     7.7077 a.u. =    19.5909 debye 
 
 ------------------------------------------------------------------------------
                     quadrupole moment
 ------------------------------------------------------------------------------
  xx   12053.328635  -12245.447699    -192.119064
  yy    2375.970266   -2499.984328    -124.014062
  zz       5.692556     -98.550629     -92.858073
  xy   -2597.875006    2624.082248      26.207242
  xz      -3.834389       3.840982       0.006593
  yz      -2.875922       2.939545       0.063623
 
     1/3  trace=    -136.330399
     anisotropy=      98.951183
 
 ==============================================================================
 


    ------------------------------------------------------------------------
         total  cpu-time :  1 minutes and  0 seconds
         total wall-time :  1 minutes and  0 seconds
    ------------------------------------------------------------------------

   ****  ridft : all done  ****


    2018-02-09 18:00:25.597 


 egrad (missouri) : TURBOMOLE V7.2 ( 21454 ) 4 Oct 2017 at 12:24:43
 Copyright (C) 2017 TURBOMOLE GmbH, Karlsruhe


    2018-02-09 18:00:25.616 




                               e g r a d

                             TURBOMOLE GmbH


             integral direct evaluation of excited state
                     and polarizability gradients
                 and first-order nonadiabatic couplings



          references (see also programs escf, dscf and ridft) 

          review 
          F. Furche and D. Rappoport,  
          "Density functional methods for excited states: 
          equilibrium structure and electronic spectra",
          ch. III of "Computational Photochemistry", ed. by 
          M. Olivucci, vol. 16 of "Theoretical and Computational 
          Chemistry", Elsevier, Amsterdam, 2005.

          nonorthonormal Krylov space methods 
          F. Furche, B. T. Krull, B. D. Nguyen, J. Kwon, 
          J. Chem. Phys. 144 (2016), 174105.

          RI-J method 
          D. Rappoport and F. Furche, 
          J. Chem. Phys. 122 (2005), 064105.

          Lagrangian method, implementation, benchmarks 
          F. Furche and R. Ahlrichs,
          J. Chem. Phys. 117 (2002), 7433;
          J. Chem. Phys. 121 (2004), 12772 (E).

          Polarizability derivatives, Raman intensities 
          D. Rappoport and F. Furche, 
          J. Chem. Phys. 126 (2007), 201104.

          First-order nonadiabatic couplings 
          R. Send and F. Furche, 
          J. Chem. Phys. 132 (2010), 044107.
                                     




              +--------------------------------------------------+
              | Atomic coordinate, charge and isotop information |
              +--------------------------------------------------+

                    atomic coordinates            atom    charge  isotop
        -12.73969118    6.95388125   -0.00886413    o      8.000     0
        -10.81894091    5.61646496   -0.00626268    c      6.000     0
         -8.30340135    6.76241262   -0.01302238    c      6.000     0
         -6.10846413    5.27001006   -0.00435158    c      6.000     0
         -6.20561999    2.61062042    0.00129746    c      6.000     0
         -8.59647234    1.43861185    0.01088990    c      6.000     0
        -10.78650998    2.87147780    0.00699274    c      6.000     0
         -3.00177962    6.29264374   -0.01036054    s     16.000     0
         -2.04721589    3.10436315    0.00114241    c      6.000     0
         -3.87306240    1.43197833    0.00167524    n      7.000     0
          0.61924055    2.59823114   -0.00241242    c      6.000     0
          1.57194364   -0.60966353    0.00414067    s     16.000     0
          2.36983344    4.34198595   -0.01221319    n      7.000     0
          4.77177342    3.38194276   -0.00742519    c      6.000     0
          4.81367957    0.45629358   -0.00055426    c      6.000     0
          5.84344061   -0.22450063    1.69189944    h      1.000     0
          5.84016378   -0.23077063   -1.67908877    h      1.000     0
          6.73567761    4.59304468   -0.01149274    o      8.000     0
         -8.23171530    8.82939592   -0.01263015    h      1.000     0
        -13.97638802    1.25121141    0.00911457    br    35.000     0
         -8.69249729   -0.62834132    0.01134322    h      1.000     0
 
       center of nuclear mass  :   -5.47697505    2.94136202   -0.00029680
       center of nuclear charge:   -5.16657057    2.98087946   -0.00054559

              +--------------------------------------------------+
              |               basis set information              |
              +--------------------------------------------------+

              we will work with the 1s 3p 5d 7f 9g ... basis set
              ...i.e. with spherical basis functions...

   type   atoms  prim   cont   basis
   ---------------------------------------------------------------------------
    o        2     24     14   def2-SV(P)   [3s2p1d|7s4p1d]
    c       10     24     14   def2-SV(P)   [3s2p1d|7s4p1d]
    s        2     36     18   def2-SV(P)   [4s3p1d|10s7p1d]
    n        2     24     14   def2-SV(P)   [3s2p1d|7s4p1d]
    h        4      4      2   def2-SV(P)   [2s|4s]
    br       1     74     32   def2-SV(P)   [5s4p3d|14s10p6d]
   ---------------------------------------------------------------------------
   total:   21    498    272
   ---------------------------------------------------------------------------

   total number of primitive shells          :   88
   total number of contracted shells         :  120
   total number of cartesian basis functions :  291
   total number of SCF-basis functions       :  272


 residuum convergence criterium   :  0.10E-04


 integral neglect threshold       :  0.11E-10
 integral storage threshold THIZE :  0.10E-04
 integral storage threshold THIME :         5

 
             FOUND RI-J FLAG !
 
  
 AUXILIARY BASIS SET information:

              we will work with the 1s 3p 5d 7f 9g ... basis set
              ...i.e. with spherical basis functions...

   type   atoms  prim   cont   basis
   ---------------------------------------------------------------------------
    o        2     70     49   def2-SV(P)   [6s4p3d1f1g|12s5p4d2f1g]
    c       10     70     49   def2-SV(P)   [6s4p3d1f1g|12s5p4d2f1g]
    s        2     77     51   def2-SV(P)   [8s4p3d1f1g|14s5p5d2f1g]
    n        2     70     49   def2-SV(P)   [6s4p3d1f1g|12s5p4d2f1g]
    h        4     16     11   def2-SV(P)   [3s1p1d|5s2p1d]
    br       1     89     58   def2-SV(P)   [8s4p3d2f1g|19s5p5d3f1g]
   ---------------------------------------------------------------------------
   total:   21   1287    890
   ---------------------------------------------------------------------------

   total number of primitive shells          :  140
   total number of contracted shells         :  282
   total number of cartesian basis functions : 1101
   total number of SCF-basis functions       :  890

 RPA SINGLET-EXCITATION-CALCULATION 
 
             FOUND DFT-FLAG !
 

 symmetry group of the molecule :   c1 

 the group has the following generators :
   c1(z)

    1 symmetry operations found

 there are 1 real representations :   a   

 maximum number of shells which are related by symmetry :  1

 IRREP of excited state :   a   
 

 determining totally symmetric integral contributions 
    - equivalent to irreducible tensor elements - 
 which can be formed within each triple of representations :

             representation triple      contributions

              a     a     a               1

    mo occupation :
   irrep   mo's   occupied
    a      272       81
 
 number of basis functions   :                    272
 number of occupied orbitals :                     81
 
  
           ------------------
           density functional
           ------------------
 PBE0 hybrid functional
 exchange:    3/4 (LDA+PBE) + 1/4 HF
 correlation: LDA (PW) + PBE

 iterations will be done with small grid
  
 spherical integration : Lebedev's spherical grid
 spherical gridsize    :                     5
    i.e. gridpoints    :                   590
 value for diffuse not defined
 radial integration    : Chebyshev 2nd kind (scaling 3)
 radial gridsize       :                     8
 integration cells     :                    21
 partition function    : becke
 partition sharpness   :                     3
  
  
           ----------------------
               RI - INFORMATION
           ----------------------

 biggest AO integral is expected to be    21.668154127

 Threshold for integral neglect (rithr2):   0.11E-10
 Threshold for integral neglect (rithr1):   0.11E-10

 Contributions to RI integral batches: 
  neglected integral batches:                  2188
  direct contribution:                            0
  memory contribution:                  5072
 Core memory available (ricore)            5000 MiB
 Core memory needed for (P|Q) and Cholesky 7 MiB
 Core memory used for integrals            244 MiB
  
 ****************************************
 Memory allocated for RIDFT 250 MiB
 ****************************************
                                            
  MOs are in ASCII format !


 reading orbital data $scfmo  from file mos
 orbital characterization : scfconv=7
 preparing numerical integration ....
          Overall gridpoints after grid construction =        122138

 Calculating ground state density on molecular grid

 Integral of ground state density: N =   161.9999983168828    



 number of non-frozen orbitals          :   272
 number of non-frozen occupied orbitals :    81



                        -------------------
                         excitation vector 
                        -------------------


 dimension of super-tensorspace: 2

          IRREP   tensor space dimension   number of roots

           a             15471                   1

 maximum number of Davidson iterations set to   50


 machine precision: 2.22D-16


 logfile sing_a    will be constructed


                       Nonorthonormal Krylov Space Iteration


 total number of roots to be determined:   1


 maximum core memory set to   500 MB,
 corresponding to      379 vectors in CAO basis


 maximum number of simultaneously treated vectors (including degeneracy):        2


 Iteration IRREP Converged      Max. Euclidean
                 roots          residual norm

    1       a        0        3.018959181053472D-02
 
    2       a        0        1.641283744837796D-02
 
    3       a        0        2.544410886515507D-02
 
    4       a        0        4.232314031261260D-02
 
    5       a        0        2.014706235732174D-02
 
    6       a        0        7.191311221469472D-03
 
    7       a        0        3.493304327161148D-03
 
    8       a        0        1.763063034732756D-03
 
    9       a        0        8.848833875829881D-04
 
   10       a        0        4.370104018362849D-04
 
   11       a        0        1.680314239521707D-04
 
   12       a        0        7.598558487420031D-05
 
   13       a        0        2.360624003547031D-05
 
   14       a        0        1.197307026934130D-05
 
   15       a        1        4.783290919547903D-06
 

 converged!


 Switching to fine grid

 preparing numerical integration ....
          Overall gridpoints after grid construction =        372405

 Calculating ground state density on molecular grid

 Integral of ground state density: N =   161.9999985118945    



 Iteration IRREP Converged      Max. Euclidean
                 roots          residual norm

   16       a        1        8.616111061234296D-06
 

 converged!

 Eigenpairs written on logfile sing_a   



 IRREP   Vector     Eigenvalue           Euclidean residual norm

  a         1    8.732267360977236D-02    8.616111061234296D-06
 




                    Selection rules for point group c1  


 Subduction with respect to c1  :

    Polar vector representation: a                           

    Axial vector representation: a                           

    Symmetric second rank tensor representation: a                           




                            Ground state


 Total energy:                           -4011.726588704000    

 Charge:

               elec          nuc         total

          -162.000000   161.000000    -1.000000


 Electric dipole moment:

               elec          nuc         total   

    x      837.632245  -831.817862     5.814383    Norm:              7.707659
    y     -484.981328   479.921594    -5.059735
    z        0.095187    -0.087841     0.007346    Norm / debye:     19.591064


 Electric quadrupole moment:

               elec          nuc         total   

   xx   -12245.447699 12053.328635  -192.119064
   yy    -2499.984328  2375.970266  -124.014062    1/3*trace:      -136.330399
   zz      -98.550629     5.692556   -92.858073
   xy     2624.082248 -2597.875006    26.207242
   xz        3.840982    -3.834389     0.006593    Anisotropy:       98.951183
   yz        2.939545    -2.875922     0.063623



 ==============================================================================

                              I R R E P   a   

 ==============================================================================


 Excitation is electric dipole allowed

 Excitation is magnetic dipole allowed

 Excitation is electric quadrupole allowed




                         1 singlet a excitation


 Total energy:                           -4011.639266030390    

 Excitation energy:                      0.8732267360977236E-01

 Excitation energy / eV:                  2.376171866219120    

 Excitation energy / nm:                  521.7814661013879    

 Excitation energy / cm^(-1):             19165.11154224143    


 Oscillator strength:

    velocity representation:             0.4288306922720873    

    length representation:               0.4871784474490625    

    mixed representation:                0.4570733264768148    


 Rotatory strength:

    velocity representation:            -0.8982589741945767E-05

    velocity rep. / 10^(-40)erg*cm^3:   -0.5803185611310708    

    length representation:              -0.9800952793297929E-05

    length rep. / 10^(-40)erg*cm^3:     -0.6331887558173358    


 Dominant contributions:

      occ. orbital   energy / eV   virt. orbital     energy / eV   |coeff.|^2*100
       81 a              -2.09          82 a               0.43       92.0
 

 Change of electron number:

             0.000000


 Electric transition dipole moment (velocity rep.):

    x        2.694393        Norm:                  2.714095
    y       -0.326435
    z       -0.000525        Norm / debye:          6.898594


 Electric transition dipole moment (length rep.):

    x        2.871066        Norm:                  2.892852
    y       -0.354356
    z       -0.000437        Norm / debye:          7.352951


 Magnetic transition dipole moment / i:

    x       -0.000004        Norm:                  0.001822
    y        0.000001
    z       -0.001822        Norm / Bohr mag.:      0.499230


 Electric quadrupole transition moment:

   xx      -23.585678
   yy       -2.540479        1/3*trace:            -8.666505
   zz        0.126641
   xy       11.084617
   xz       -0.001156        Anisotropy:           29.576176
   yz       -0.000243
 

 Excited state no.    1 chosen for optimization


                       ----------------------
                        CPKS right-hand side 
                       ----------------------


          IRREP   tensor space dimension   number of roots

           a             15471                   1

                          ----------------
                           CPKS equations 
                          ----------------


 logfile dipl_a    will be constructed

 Switching to coarse grid

 preparing numerical integration ....
          Overall gridpoints after grid construction =        122138


                       Nonorthonormal Krylov Space Iteration


 total number of roots to be determined:   1


 maximum core memory set to   500 MB,
 corresponding to      754 vectors in CAO basis


 maximum number of simultaneously treated vectors (including degeneracy):        1


 Iteration IRREP Converged      Max. Euclidean
                 roots          residual norm

    1       a        0        1.063860522415797D-01
 
    2       a        0        4.925188599184033D-02
 
    3       a        0        2.042438291742950D-02
 
    4       a        0        8.133013917575099D-03
 
    5       a        0        3.427974111116757D-03
 
    6       a        0        9.722900784471782D-04
 
    7       a        0        3.969054309492508D-04
 
    8       a        0        1.424494878161949D-04
 
    9       a        0        6.038615441730831D-05
 
   10       a        0        1.650364215415511D-05
 
   11       a        1        6.927967725636204D-06
 

 converged!


 Switching to fine grid

 preparing numerical integration ....
          Overall gridpoints after grid construction =        372405

 Iteration IRREP Converged      Max. Euclidean
                 roots          residual norm

   12       a        0        1.595631498758792D-05
 

 NOTE: Residual norms are larger than 1.00D-05 due to mgrid option!

 Eigenpairs written on logfile dipl_a   



 IRREP   Vector     Frequency            Euclidean residual norm

  a         1    0.000000000000000D+00    1.595631498758792D-05
 

                          -------------------
                           relaxed densities 
                          -------------------


    ----------------------------------------
     S+T+V CONTRIBUTIONS TO ENERGY GRADIENT 
    ----------------------------------------

 1e-integral 1st. derivatives will be neglected if expon. factor < 0.100000E-10


    -----------------------------------------------
     TWO ELECTRON CONTRIBUTIONS TO ENERGY GRADIENT 
    -----------------------------------------------

 setting up bound for integral derivative estimation

 increment for numerical differentiation : 0.00050000

 biggest AO integral is expected to be    21.668154127
 biggest cartesian 1st derivative AO integral is expected to be    83.347447328

 biggest 1-particle AO density matrix element is expected to be    3.2085885982

 core memory to be involved in 2e-gradient :
   symmetry shell pair data              :         1
   two particle density+dens. estimates  :      8556
   derivative integrals                  :      8498
   derivative integral bound             :     21780
   totally                               :     30276


 setting up bound for integral derivative estimation

 increment for numerical differentiation : 0.00050000

 biggest AO integral is expected to be    21.668154127
 biggest cartesian 1st derivative AO integral is expected to be    83.347447328

 2e-integral 1st. derivatives will be neglected if expon. factor < 0.100000E-06
 outer boundary for 2e-integral derivative neglection is 0.161890E-08

 Integrated ground state density     :   161.9999985118937    


          ------------------------------------------------
           cartesian gradient of the energy (hartree/bohr)
          ------------------------------------------------

  ATOM      1 o           2 c           3 c           4 c           5 c 
dE/dx  0.1762387D-02 -0.2087887D-02 -0.1679327D-02  0.9622045D-03 -0.1050584D-02
dE/dy -0.8180147D-03 -0.2038016D-02  0.5007225D-03 -0.3293852D-02  0.9176982D-03
dE/dz  0.5624372D-04 -0.1203207D-03 -0.4412906D-03  0.3930049D-03 -0.3362324D-03

  ATOM      6 c           7 c           8 s           9 c          10 n 
dE/dx  0.2095954D-02 -0.1587041D-03  0.1128340D-02  0.4021905D-02 -0.3026933D-02
dE/dy  0.7594972D-03  0.2751565D-02  0.1425406D-02 -0.3787613D-05 -0.2430164D-03
dE/dz  0.4626843D-03  0.1468230D-03 -0.1966903D-03  0.4778267D-03 -0.2486801D-03

  ATOM     11 c          12 s          13 n          14 c          15 c 
dE/dx -0.3993016D-03 -0.7556443D-03 -0.9643118D-03 -0.4429189D-02 -0.1556693D-02
dE/dy  0.4230985D-04  0.5069719D-03 -0.4592412D-03 -0.3641428D-02  0.1155043D-02
dE/dz  0.5843675D-04 -0.5643101D-05 -0.2743734D-03  0.3084006D-03 -0.3033805D-02

  ATOM     16 h          17 h          18 o          19 h          20 br
dE/dx  0.1479899D-02 -0.1815637D-03  0.4885283D-02  0.4000201D-03 -0.3219037D-03
dE/dy -0.7857857D-03  0.3923434D-03  0.3210387D-02  0.9746600D-03  0.2359864D-05
dE/dz  0.2070893D-02  0.8206117D-03 -0.5684250D-04  0.1569491D-03 -0.6380722D-04

  ATOM     21 h 
dE/dx -0.1385846D-03
dE/dy -0.1358251D-02
dE/dz -0.1741664D-03
 
 resulting FORCE  (fx,fy,fz) = (-.146D-04,-.243D-05,0.217D-07)
 resulting MOMENT (mx,my,mz) = (0.139D-05,-.932D-05,-.296D-04)


 **********************************************************************
  |maximum component of gradient| : 0.48852829E-02  (atom 18 o )       
   gradient norm                  : 0.12837622E-01
 **********************************************************************

 exx =       0.009074 eyy =      -0.000796 ezz =       0.002137
 eyz =      -0.001977 exz =       0.002814 exy =       0.014207


 <getgrd> : data group $grad  is missing 

   ***  cartesian gradients written onto <gradient>  ***
 
 
 
 ==============================================================================
                           electrostatic moments
 ==============================================================================

 reference point for electrostatic moments:    0.00000   0.00000   0.00000

 
              nuc           gs,e       ->  gs,tot          excit     ->  total
 ------------------------------------------------------------------------------
                          charge      
 ------------------------------------------------------------------------------
         161.000000    -162.000000      -1.000000      -0.000000      -1.000000
 
 ------------------------------------------------------------------------------
                       dipole moment  
 ------------------------------------------------------------------------------
   x    -831.817862     837.632245       5.814383      -0.937903       4.876480
   y     479.921594    -484.981328      -5.059735       0.855329      -4.204405
   z      -0.087841       0.095187       0.007346      -0.002761       0.004585
 
   | dipole moment | =     6.4387 a.u. =    16.3656 debye 
 
 ------------------------------------------------------------------------------
                     quadrupole moment
 ------------------------------------------------------------------------------
  xx   12053.328635  -12245.447699    -192.119064       1.033769    -191.085295
  yy    2375.970266   -2499.984328    -124.014062       7.398039    -116.616022
  zz       5.692556     -98.550629     -92.858073       0.111733     -92.746340
  xy   -2597.875006    2624.082248      26.207242      -8.546175      17.661067
  xz      -3.834389       3.840982       0.006593       0.023814       0.030407
  yz      -2.875922       2.939545       0.063623      -0.015228       0.048395
 
     1/3  trace=    -133.482552
     anisotropy=      93.961385
 
 ==============================================================================
 


    ------------------------------------------------------------------------
         total  cpu-time :  6 minutes and  0 seconds
         total wall-time :  6 minutes and  0 seconds
    ------------------------------------------------------------------------

   ****  egrad : all done  ****


    2018-02-09 18:06:25.539 

$dipole from egrad
  x     4.87648020247468    y    -4.20440513108758    z     0.00458541595395    a.u.
   | dipole | =   16.3657150438  debye
/work/bdnguye2/luc_project/5_brluc/ex_geo_opt/save/numforce/KraftWerk/p052
