 operating system is UNIX !

 ridft (missouri) : TURBOMOLE V7.2 ( 21454 ) 4 Oct 2017 at 12:48:15
 Copyright (C) 2017 TURBOMOLE GmbH, Karlsruhe


    2018-02-09 18:34:03.590 



                                  r i d f t

                        DFT program with RI approximation 
                                for coulomb part 




                                                 
                                 References:     
                                                 
          TURBOMOLE:                             
              R. Ahlrichs, M. Baer, M. Haeser, H. Horn, and
              C. Koelmel
              Electronic structure calculations on workstation
              computers: the program system TURBOMOLE
              Chem. Phys. Lett. 162: 165 (1989)
          Density Functional:                              
              O. Treutler and R. Ahlrichs                      
              Efficient Molecular Numerical Integration Schemes
              J. Chem. Phys. 102: 346 (1995)                   
          Parallel Version:                                
              Performance of parallel TURBOMOLE for Density    
              Functional Calculations                          
              M. v. Arnim and R. Ahlrichs                      
              J. Comp. Chem. 19: 1746 (1998)                   
          RI-J Method:                                     
              Auxiliary Basis Sets to approximate Coulomb      
              Potentials                                       
              Chem. Phys. Lett. 240: 283 (1995)                
              K. Eichkorn, O. Treutler, H. Oehm, M. Haeser     
              and R. Ahlrichs                                  
              Chem. Phys. Lett. 242: 652 (1995)                
                                                           
              Auxiliary Basis Sets for Main Row Atoms and their
              Use to approximate Coulomb Potentials            
              K. Eichkorn, F. Weigend, O. Treutler and         
              R. Ahlrichs                                      
              Theo. Chem. Acc. 97: 119 (1997)                   
                                                           
              Accurate Coulomb-fitting basis sets for H to Rn 
              F. Weigend                                        
              Phys. Chem. Chem. Phys. 8: 1057 (2006)            
                                                           
          Multipole accelerated RI-J (MARI-J):             
              Fast evaluation of the Coulomb potential for     
              electron densities using multipole accelerated   
              resolution of identity approximation             
              M. Sierka, A. Hogekamp and R. Ahlrichs           
              J. Chem. Phys. 118: 9136 (2003)                  
          RI-JK Method:                                     
              A fully direct RI-HF algorithm: Implementation,
              optimised auxiliary basis sets, demonstration of
              accuracy and efficiency                         
              F. Weigend                                      
              Phys. Chem. Chem. Phys. 4: 4285 (2002)           
          Two-component HF and DFT with spin-orbit coupling:  
              Self-consistent treatment of spin-orbit         
              interactions with efficient Hartree-Fock and    
              density functional methods                      
              M. K. Armbruster, F. Weigend, C. van Wüllen and 
              W. Klopper                                      
              Phys. Chem. Chem. Phys. 10: 1748 (2008)         
          Relativistic all-electron 2c calculations           
              An efficient implementation of two-component    
              relativistic exact-decoupling methods for large 
              molecules                                       
              D. Peng, N. Middendorf, F. Weigend, M. Reiher   
              J. Chem. Phys. 138, 184105 (2013)               
                                         




              +--------------------------------------------------+
              |      general information about current run       |
              +--------------------------------------------------+

 
 PBE0 hybrid functional
 exchange:    3/4 (LDA+PBE) + 1/4 HF
 correlation: LDA (PW) + PBE
 A Hybrid-DFT calculation using the RI-J approximation will be carried out.
 Allocatable memory for RI due to $ricore (MB):                  5000


              +--------------------------------------------------+
              | Atomic coordinate, charge and isotop information |
              +--------------------------------------------------+

                    atomic coordinates            atom    charge  isotop
        -12.74075865    6.95427409   -0.01048178    o      8.000     0
        -10.81606861    5.61744363   -0.00123744    c      6.000     0
         -8.29838107    6.76641616   -0.00595756    c      6.000     0
         -6.10869069    5.27518870   -0.00905469    c      6.000     0
         -6.20482589    2.60446155   -0.00131645    c      6.000     0
         -8.60048801    1.43584621    0.01006907    c      6.000     0
        -10.78713576    2.87175482    0.00768084    c      6.000     0
         -3.00320847    6.29170660   -0.01393428    s     16.000     0
         -2.05166680    3.10125838   -0.00543317    c      6.000     0
         -3.87242806    1.42703041    0.00678438    n      7.000     0
          0.61879886    2.60511085    0.00116011    c      6.000     0
          1.57673051   -0.60533135    0.00512947    s     16.000     0
          2.37201572    4.34084745   -0.01212746    n      7.000     0
          4.77156168    3.38258174   -0.00550068    c      6.000     0
          4.81716638    0.45840731    0.00508418    c      6.000     0
          5.84252903   -0.22011608    1.68674910    h      1.000     0
          5.84187381   -0.23222640   -1.67840844    h      1.000     0
          6.73146953    4.59001450   -0.01649134    o      8.000     0
         -8.23819962    8.82724297   -0.01923286    h      1.000     0
        -13.97371488    1.24811776    0.01504453    br    35.000     0
         -8.69125739   -0.62290894    0.01638275    h      1.000     0
 
       center of nuclear mass  :   -5.47606618    2.94086549    0.00111184
       center of nuclear charge:   -5.16574100    2.98048687    0.00068914

              +--------------------------------------------------+
              |               basis set information              |
              +--------------------------------------------------+

              we will work with the 1s 3p 5d 7f 9g ... basis set
              ...i.e. with spherical basis functions...

   type   atoms  prim   cont   basis
   ---------------------------------------------------------------------------
    o        2     24     14   def2-SV(P)   [3s2p1d|7s4p1d]
    c       10     24     14   def2-SV(P)   [3s2p1d|7s4p1d]
    s        2     36     18   def2-SV(P)   [4s3p1d|10s7p1d]
    n        2     24     14   def2-SV(P)   [3s2p1d|7s4p1d]
    h        4      4      2   def2-SV(P)   [2s|4s]
    br       1     74     32   def2-SV(P)   [5s4p3d|14s10p6d]
   ---------------------------------------------------------------------------
   total:   21    498    272
   ---------------------------------------------------------------------------

   total number of primitive shells          :   88
   total number of contracted shells         :  120
   total number of cartesian basis functions :  291
   total number of SCF-basis functions       :  272


 integral neglect threshold       :  0.11E-10
 integral storage threshold THIZE :  0.10E-04
 integral storage threshold THIME :         5

 RI-J AUXILIARY BASIS SET information:

              we will work with the 1s 3p 5d 7f 9g ... basis set
              ...i.e. with spherical basis functions...

   type   atoms  prim   cont   basis
   ---------------------------------------------------------------------------
    o        2     70     49   def2-SV(P)   [6s4p3d1f1g|12s5p4d2f1g]
    c       10     70     49   def2-SV(P)   [6s4p3d1f1g|12s5p4d2f1g]
    s        2     77     51   def2-SV(P)   [8s4p3d1f1g|14s5p5d2f1g]
    n        2     70     49   def2-SV(P)   [6s4p3d1f1g|12s5p4d2f1g]
    h        4     16     11   def2-SV(P)   [3s1p1d|5s2p1d]
    br       1     89     58   def2-SV(P)   [8s4p3d2f1g|19s5p5d3f1g]
   ---------------------------------------------------------------------------
   total:   21   1287    890
   ---------------------------------------------------------------------------

   total number of primitive shells          :  140
   total number of contracted shells         :  282
   total number of cartesian basis functions : 1101
   total number of SCF-basis functions       :  890


 symmetry group of the molecule :   c1 

 the group has the following generators :
   c1(z)

    1 symmetry operations found

 there are 1 real representations :   a   

 maximum number of shells which are related by symmetry :  1


    mo occupation :
   irrep   mo's   occupied
    a      272       81
 
 number of basis functions   :                    272
 number of occupied orbitals :                     81
 
  
           ------------------
           density functional
           ------------------
 PBE0 hybrid functional
 exchange:    3/4 (LDA+PBE) + 1/4 HF
 correlation: LDA (PW) + PBE

 iterations will be done with small grid
  
 spherical integration : Lebedev's spherical grid
 spherical gridsize    :                     5
    i.e. gridpoints    :                   590
 value for diffuse not defined
 radial integration    : Chebyshev 2nd kind (scaling 3)
 radial gridsize       :                     8
 integration cells     :                    21
 partition function    : becke
 partition sharpness   :                     3
  

 biggest AO integral is expected to be    21.668154127
  
           ------------------------
               RI-J - INFORMATION
           ------------------------
 Contributions to RI integral batches: 
  neglected integral batches:                  2343
  direct contribution:                            0
  memory contribution:                  4917
 Memory core needed for (P|Q) and Cholesky      7 MByte
 Memory core minimum needed except of (P|Q)     1 MByte
 Total minimum memory core needed (sum)         7 MByte
  
 ****************************************
 Memory allocated for RI-J   243 MByte
 ****************************************
                                            

          ------------------------
          nuclear repulsion energy  :   1647.26642506    
          ------------------------


         -----------------
         -S,T+V- integrals
         -----------------

 1e-integrals will be neglected if expon. factor < 0.114844E-11
 
   Difference densities algorithm switched on.
   The maximal number of linear combinations of
   difference densities is                    20 .

 DIIS switched on: error vector is FDS-SDF
 Max. Iterations for DIIS is     :   4
 DIIS matrix (see manual) 
    Scaling factor of diagonals  :  1.200
    threshold for scaling factor :  0.000

 scf convergence criterion : increment of total energy < .1000000D-06
                  and increment of one-electron energy < .1000000D-03

  MOs are in ASCII format !


 automatic virtual orbital shift switched on 
      shift if e(lumo)-e(homo) < 0.10000000    


 reading orbital data $scfmo  from file mos
 orbital characterization : scfconv=7

 dump of DSCF restart information has been disabled !


 Starting SCF iterations

          Overall gridpoints after grid construction =        122142

 ITERATION  ENERGY          1e-ENERGY        2e-ENERGY     NORM[dD(SAO)]  TOL
   1  -4011.7268915668    -8854.9704309     3195.9771143    0.000D+00 0.115D-10
                            Exc = -172.721002427     Coul =  3424.35568144    
                            exK = -55.6575647314    
                              N = 161.99999496    
                            current damping = 0.700
 
          max. resid. norm for Fia-block=  2.184D-03 for orbital      1a         
          max. resid. fock norm         =  6.426D-03 for orbital    196a         

 ITERATION  ENERGY          1e-ENERGY        2e-ENERGY     NORM[dD(SAO)]  TOL
   2  -4011.7269388560    -8854.9747878     3195.9814239    0.193D-01 0.726D-11
                            Exc = -172.721248956      Eck =  3368.70267286    
                              N = 161.99999493    
                            current damping = 0.650
 
          Norm of current diis error: 0.68597E-02
          max. resid. norm for Fia-block=  8.996D-04 for orbital      1a         
          max. resid. fock norm         =  2.657D-03 for orbital    196a         

 ITERATION  ENERGY          1e-ENERGY        2e-ENERGY     NORM[dD(SAO)]  TOL
   3  -4011.7269482604    -8854.9749041     3195.9815308    0.509D-02 0.561D-11
                            Exc = -172.721619133      Eck =  3368.70314995    
                              N = 161.99999492    
                            current damping = 0.500
 
          Norm of current diis error: 0.44846E-02
          max. resid. norm for Fia-block=  3.544D-04 for orbital      1a         
          max. resid. fock norm         =  1.061D-03 for orbital    196a         

 ITERATION  ENERGY          1e-ENERGY        2e-ENERGY     NORM[dD(SAO)]  TOL
   4  -4011.7269517141    -8854.9772051     3195.9838283    0.169D-02 0.517D-11
                            Exc = -172.721338228      Eck =  3368.70516651    
                              N = 161.99999492    
                            current damping = 0.350
 
          Norm of current diis error: 0.15938E-02
          max. resid. norm for Fia-block=  1.303D-04 for orbital     77a         
          max. resid. fock norm         =  3.593D-04 for orbital    196a         

 ITERATION  ENERGY          1e-ENERGY        2e-ENERGY     NORM[dD(SAO)]  TOL
   5  -4011.7269521093    -8854.9750115     3195.9816343    0.120D-02 0.496D-11
                            Exc = -172.721560861      Eck =  3368.70319519    
                              N = 161.99999491    
                            current damping = 0.400
 
          Norm of current diis error: 0.10765E-02
          max. resid. norm for Fia-block=  6.168D-05 for orbital     81a         
          max. resid. fock norm         =  1.170D-04 for orbital    224a         
          mo-orthogonalization: Cholesky decomposition

 ITERATION  ENERGY          1e-ENERGY        2e-ENERGY     NORM[dD(SAO)]  TOL
   6  -4011.7269525294    -8854.9763885     3195.9830109    0.468D-03 0.483D-11
                            Exc = -172.721486342      Eck =  3368.70449728    
                              N = 161.99999493    
                            current damping = 0.450
 
          Norm of current diis error: 0.32909E-03
          max. resid. norm for Fia-block=  2.364D-05 for orbital     81a         
          max. resid. fock norm         =  4.540D-05 for orbital    241a         

 ENERGY CONVERGED !

          Overall gridpoints after grid construction =        372401

 ITERATION  ENERGY          1e-ENERGY        2e-ENERGY     NORM[dD(SAO)]  TOL
   7  -4011.7269566166    -8854.9765599     3195.9831782    0.200D-03 0.476D-11
                            Exc = -172.721485707      Eck =  3368.70466392    
                              N = 161.99999859    
                            current damping = 0.300
 
          Norm of current diis error: 0.19645E-03
          max. resid. norm for Fia-block=  1.106D-05 for orbital     81a         
          max. resid. fock norm         =  2.061D-05 for orbital    252a         

 End of SCF iterations

   convergence criteria satisfied after     7 iterations


                  ------------------------------------------ 
                 |  total energy      =  -4011.72695661660  |
                  ------------------------------------------ 
                 :  kinetic energy    =   4002.30212300029  :
                 :  potential energy  =  -8014.02907961689  :
                 :  virial theorem    =      1.99765067919  :
                 :  wavefunction norm =      1.00000000000  :
                  .......................................... 


 <geterg> : there is no data group $energy 


 orbitals $scfmo  will be written to file mos

    irrep                 77a         78a         79a         80a         81a   
 eigenvalues H         -0.17345    -0.16420    -0.12787    -0.11938    -0.07686
            eV          -4.7199     -4.4682     -3.4795     -3.2486     -2.0914
 occupation              2.0000      2.0000      2.0000      2.0000      2.0000 

    irrep                 82a         83a         84a         85a         86a   
 eigenvalues H          0.01594     0.10572     0.11733     0.12758     0.13186
            eV           0.4337      2.8769      3.1927      3.4716      3.5882
 
 
 
 
 ==============================================================================
                           electrostatic moments
 ==============================================================================

 reference point for electrostatic moments:    0.00000   0.00000   0.00000

 
              nuc           elec       ->  total
 ------------------------------------------------------------------------------
                          charge      
 ------------------------------------------------------------------------------
         161.000000    -162.000000      -1.000000
 
 ------------------------------------------------------------------------------
                       dipole moment  
 ------------------------------------------------------------------------------
   x    -831.684301     837.500136       5.815835
   y     479.858387    -484.904824      -5.046437
   z       0.110951      -0.101956       0.008995
 
   | dipole moment | =     7.7000 a.u. =    19.5715 debye 
 
 ------------------------------------------------------------------------------
                     quadrupole moment
 ------------------------------------------------------------------------------
  xx   12050.864345  -12242.903783    -192.039438
  yy    2375.657980   -2499.601875    -123.943896
  zz       5.680880     -98.532208     -92.851328
  xy   -2596.360693    2622.602396      26.241703
  xz      -6.896362       6.931271       0.034909
  yz      -2.998398       3.071213       0.072815
 
     1/3  trace=    -136.278220
     anisotropy=      98.928845
 
 ==============================================================================
 


    ------------------------------------------------------------------------
         total  cpu-time :  1 minutes and  1 seconds
         total wall-time :  1 minutes and  1 seconds
    ------------------------------------------------------------------------

   ****  ridft : all done  ****


    2018-02-09 18:35:04.623 


 egrad (missouri) : TURBOMOLE V7.2 ( 21454 ) 4 Oct 2017 at 12:24:43
 Copyright (C) 2017 TURBOMOLE GmbH, Karlsruhe


    2018-02-09 18:35:04.632 




                               e g r a d

                             TURBOMOLE GmbH


             integral direct evaluation of excited state
                     and polarizability gradients
                 and first-order nonadiabatic couplings



          references (see also programs escf, dscf and ridft) 

          review 
          F. Furche and D. Rappoport,  
          "Density functional methods for excited states: 
          equilibrium structure and electronic spectra",
          ch. III of "Computational Photochemistry", ed. by 
          M. Olivucci, vol. 16 of "Theoretical and Computational 
          Chemistry", Elsevier, Amsterdam, 2005.

          nonorthonormal Krylov space methods 
          F. Furche, B. T. Krull, B. D. Nguyen, J. Kwon, 
          J. Chem. Phys. 144 (2016), 174105.

          RI-J method 
          D. Rappoport and F. Furche, 
          J. Chem. Phys. 122 (2005), 064105.

          Lagrangian method, implementation, benchmarks 
          F. Furche and R. Ahlrichs,
          J. Chem. Phys. 117 (2002), 7433;
          J. Chem. Phys. 121 (2004), 12772 (E).

          Polarizability derivatives, Raman intensities 
          D. Rappoport and F. Furche, 
          J. Chem. Phys. 126 (2007), 201104.

          First-order nonadiabatic couplings 
          R. Send and F. Furche, 
          J. Chem. Phys. 132 (2010), 044107.
                                     




              +--------------------------------------------------+
              | Atomic coordinate, charge and isotop information |
              +--------------------------------------------------+

                    atomic coordinates            atom    charge  isotop
        -12.74075865    6.95427409   -0.01048178    o      8.000     0
        -10.81606861    5.61744363   -0.00123744    c      6.000     0
         -8.29838107    6.76641616   -0.00595756    c      6.000     0
         -6.10869069    5.27518870   -0.00905469    c      6.000     0
         -6.20482589    2.60446155   -0.00131645    c      6.000     0
         -8.60048801    1.43584621    0.01006907    c      6.000     0
        -10.78713576    2.87175482    0.00768084    c      6.000     0
         -3.00320847    6.29170660   -0.01393428    s     16.000     0
         -2.05166680    3.10125838   -0.00543317    c      6.000     0
         -3.87242806    1.42703041    0.00678438    n      7.000     0
          0.61879886    2.60511085    0.00116011    c      6.000     0
          1.57673051   -0.60533135    0.00512947    s     16.000     0
          2.37201572    4.34084745   -0.01212746    n      7.000     0
          4.77156168    3.38258174   -0.00550068    c      6.000     0
          4.81716638    0.45840731    0.00508418    c      6.000     0
          5.84252903   -0.22011608    1.68674910    h      1.000     0
          5.84187381   -0.23222640   -1.67840844    h      1.000     0
          6.73146953    4.59001450   -0.01649134    o      8.000     0
         -8.23819962    8.82724297   -0.01923286    h      1.000     0
        -13.97371488    1.24811776    0.01504453    br    35.000     0
         -8.69125739   -0.62290894    0.01638275    h      1.000     0
 
       center of nuclear mass  :   -5.47606618    2.94086549    0.00111184
       center of nuclear charge:   -5.16574100    2.98048687    0.00068914

              +--------------------------------------------------+
              |               basis set information              |
              +--------------------------------------------------+

              we will work with the 1s 3p 5d 7f 9g ... basis set
              ...i.e. with spherical basis functions...

   type   atoms  prim   cont   basis
   ---------------------------------------------------------------------------
    o        2     24     14   def2-SV(P)   [3s2p1d|7s4p1d]
    c       10     24     14   def2-SV(P)   [3s2p1d|7s4p1d]
    s        2     36     18   def2-SV(P)   [4s3p1d|10s7p1d]
    n        2     24     14   def2-SV(P)   [3s2p1d|7s4p1d]
    h        4      4      2   def2-SV(P)   [2s|4s]
    br       1     74     32   def2-SV(P)   [5s4p3d|14s10p6d]
   ---------------------------------------------------------------------------
   total:   21    498    272
   ---------------------------------------------------------------------------

   total number of primitive shells          :   88
   total number of contracted shells         :  120
   total number of cartesian basis functions :  291
   total number of SCF-basis functions       :  272


 residuum convergence criterium   :  0.10E-04


 integral neglect threshold       :  0.11E-10
 integral storage threshold THIZE :  0.10E-04
 integral storage threshold THIME :         5

 
             FOUND RI-J FLAG !
 
  
 AUXILIARY BASIS SET information:

              we will work with the 1s 3p 5d 7f 9g ... basis set
              ...i.e. with spherical basis functions...

   type   atoms  prim   cont   basis
   ---------------------------------------------------------------------------
    o        2     70     49   def2-SV(P)   [6s4p3d1f1g|12s5p4d2f1g]
    c       10     70     49   def2-SV(P)   [6s4p3d1f1g|12s5p4d2f1g]
    s        2     77     51   def2-SV(P)   [8s4p3d1f1g|14s5p5d2f1g]
    n        2     70     49   def2-SV(P)   [6s4p3d1f1g|12s5p4d2f1g]
    h        4     16     11   def2-SV(P)   [3s1p1d|5s2p1d]
    br       1     89     58   def2-SV(P)   [8s4p3d2f1g|19s5p5d3f1g]
   ---------------------------------------------------------------------------
   total:   21   1287    890
   ---------------------------------------------------------------------------

   total number of primitive shells          :  140
   total number of contracted shells         :  282
   total number of cartesian basis functions : 1101
   total number of SCF-basis functions       :  890

 RPA SINGLET-EXCITATION-CALCULATION 
 
             FOUND DFT-FLAG !
 

 symmetry group of the molecule :   c1 

 the group has the following generators :
   c1(z)

    1 symmetry operations found

 there are 1 real representations :   a   

 maximum number of shells which are related by symmetry :  1

 IRREP of excited state :   a   
 

 determining totally symmetric integral contributions 
    - equivalent to irreducible tensor elements - 
 which can be formed within each triple of representations :

             representation triple      contributions

              a     a     a               1

    mo occupation :
   irrep   mo's   occupied
    a      272       81
 
 number of basis functions   :                    272
 number of occupied orbitals :                     81
 
  
           ------------------
           density functional
           ------------------
 PBE0 hybrid functional
 exchange:    3/4 (LDA+PBE) + 1/4 HF
 correlation: LDA (PW) + PBE

 iterations will be done with small grid
  
 spherical integration : Lebedev's spherical grid
 spherical gridsize    :                     5
    i.e. gridpoints    :                   590
 value for diffuse not defined
 radial integration    : Chebyshev 2nd kind (scaling 3)
 radial gridsize       :                     8
 integration cells     :                    21
 partition function    : becke
 partition sharpness   :                     3
  
  
           ----------------------
               RI - INFORMATION
           ----------------------

 biggest AO integral is expected to be    21.668154127

 Threshold for integral neglect (rithr2):   0.11E-10
 Threshold for integral neglect (rithr1):   0.11E-10

 Contributions to RI integral batches: 
  neglected integral batches:                  2187
  direct contribution:                            0
  memory contribution:                  5073
 Core memory available (ricore)            5000 MiB
 Core memory needed for (P|Q) and Cholesky 7 MiB
 Core memory used for integrals            244 MiB
  
 ****************************************
 Memory allocated for RIDFT 250 MiB
 ****************************************
                                            
  MOs are in ASCII format !


 reading orbital data $scfmo  from file mos
 orbital characterization : scfconv=7
 preparing numerical integration ....
          Overall gridpoints after grid construction =        122142

 Calculating ground state density on molecular grid

 Integral of ground state density: N =   161.9999949268240    



 number of non-frozen orbitals          :   272
 number of non-frozen occupied orbitals :    81



                        -------------------
                         excitation vector 
                        -------------------


 dimension of super-tensorspace: 2

          IRREP   tensor space dimension   number of roots

           a             15471                   1

 maximum number of Davidson iterations set to   50


 machine precision: 2.22D-16


 logfile sing_a    will be constructed


                       Nonorthonormal Krylov Space Iteration


 total number of roots to be determined:   1


 maximum core memory set to   500 MB,
 corresponding to      379 vectors in CAO basis


 maximum number of simultaneously treated vectors (including degeneracy):        2


 Iteration IRREP Converged      Max. Euclidean
                 roots          residual norm

    1       a        0        3.038272436662999D-02
 
    2       a        0        2.015757017144148D-02
 
    3       a        0        9.313334674440717D-02
 
    4       a        0        4.147012316494926D-02
 
    5       a        0        1.495826595478143D-02
 
    6       a        0        6.750257114535869D-03
 
    7       a        0        3.040819063828377D-03
 
    8       a        0        1.581176964203215D-03
 
    9       a        0        7.560683808000094D-04
 
   10       a        0        3.525104787116725D-04
 
   11       a        0        1.328277926450739D-04
 
   12       a        0        5.871188423101058D-05
 
   13       a        0        1.730330700958511D-05
 
   14       a        1        8.579957948872061D-06
 

 converged!


 Switching to fine grid

 preparing numerical integration ....
          Overall gridpoints after grid construction =        372401

 Calculating ground state density on molecular grid

 Integral of ground state density: N =   161.9999985890958    



 Iteration IRREP Converged      Max. Euclidean
                 roots          residual norm

   15       a        0        1.108969932829809D-05
 

 NOTE: Residual norms are larger than 1.00D-05 due to mgrid option!

 Eigenpairs written on logfile sing_a   



 IRREP   Vector     Eigenvalue           Euclidean residual norm

  a         1    8.766147698202556D-02    1.108969932829809D-05
 




                    Selection rules for point group c1  


 Subduction with respect to c1  :

    Polar vector representation: a                           

    Axial vector representation: a                           

    Symmetric second rank tensor representation: a                           




                            Ground state


 Total energy:                           -4011.726956617000    

 Charge:

               elec          nuc         total

          -162.000000   161.000000    -1.000000


 Electric dipole moment:

               elec          nuc         total   

    x      837.500136  -831.684301     5.815835    Norm:              7.700035
    y     -484.904824   479.858387    -5.046437
    z       -0.101956     0.110951     0.008995    Norm / debye:     19.571685


 Electric quadrupole moment:

               elec          nuc         total   

   xx   -12242.903783 12050.864345  -192.039438
   yy    -2499.601875  2375.657980  -123.943896    1/3*trace:      -136.278220
   zz      -98.532208     5.680880   -92.851328
   xy     2622.602396 -2596.360693    26.241703
   xz        6.931271    -6.896362     0.034909    Anisotropy:       98.928845
   yz        3.071213    -2.998398     0.072815



 ==============================================================================

                              I R R E P   a   

 ==============================================================================


 Excitation is electric dipole allowed

 Excitation is magnetic dipole allowed

 Excitation is electric quadrupole allowed




                         1 singlet a excitation


 Total energy:                           -4011.639295140018    

 Excitation energy:                      0.8766147698202556E-01

 Excitation energy / eV:                  2.385391179005234    

 Excitation energy / nm:                  519.7648297591710    

 Excitation energy / cm^(-1):             19239.47028724661    


 Oscillator strength:

    velocity representation:             0.4336528904099951    

    length representation:               0.4922755117461438    

    mixed representation:                0.4620342316656482    


 Rotatory strength:

    velocity representation:             0.1953666093350126E-04

    velocity rep. / 10^(-40)erg*cm^3:     1.262162392800005    

    length representation:               0.1980798160654431E-04

    length rep. / 10^(-40)erg*cm^3:       1.279691015069172    


 Dominant contributions:

      occ. orbital   energy / eV   virt. orbital     energy / eV   |coeff.|^2*100
       81 a              -2.09          82 a               0.43       92.1
 

 Change of electron number:

             0.000000


 Electric transition dipole moment (velocity rep.):

    x        2.704534        Norm:                  2.724033
    y       -0.325343
    z       -0.001659        Norm / debye:          6.923854


 Electric transition dipole moment (length rep.):

    x        2.880766        Norm:                  2.902320
    y       -0.353054
    z       -0.001202        Norm / debye:          7.377018


 Magnetic transition dipole moment / i:

    x        0.000006        Norm:                  0.001824
    y       -0.000005
    z       -0.001824        Norm / Bohr mag.:      0.499864


 Electric quadrupole transition moment:

   xx      -23.694764
   yy       -2.524180        1/3*trace:            -8.697504
   zz        0.126432
   xy       11.090446
   xz       -0.000156        Anisotropy:           29.670329
   yz       -0.001209
 

 Excited state no.    1 chosen for optimization


                       ----------------------
                        CPKS right-hand side 
                       ----------------------


          IRREP   tensor space dimension   number of roots

           a             15471                   1

                          ----------------
                           CPKS equations 
                          ----------------


 logfile dipl_a    will be constructed

 Switching to coarse grid

 preparing numerical integration ....
          Overall gridpoints after grid construction =        122142


                       Nonorthonormal Krylov Space Iteration


 total number of roots to be determined:   1


 maximum core memory set to   500 MB,
 corresponding to      754 vectors in CAO basis


 maximum number of simultaneously treated vectors (including degeneracy):        1


 Iteration IRREP Converged      Max. Euclidean
                 roots          residual norm

    1       a        0        1.060755757346321D-01
 
    2       a        0        4.911031504203660D-02
 
    3       a        0        2.028631042084982D-02
 
    4       a        0        8.053980927966300D-03
 
    5       a        0        3.391212893048979D-03
 
    6       a        0        9.658342100566016D-04
 
    7       a        0        3.927924391097786D-04
 
    8       a        0        1.410065096187275D-04
 
    9       a        0        5.978262282011360D-05
 
   10       a        0        1.643780752766445D-05
 
   11       a        1        6.923093443471054D-06
 

 converged!


 Switching to fine grid

 preparing numerical integration ....
          Overall gridpoints after grid construction =        372401

 Iteration IRREP Converged      Max. Euclidean
                 roots          residual norm

   12       a        0        1.586682152422086D-05
 

 NOTE: Residual norms are larger than 1.00D-05 due to mgrid option!

 Eigenpairs written on logfile dipl_a   



 IRREP   Vector     Frequency            Euclidean residual norm

  a         1    0.000000000000000D+00    1.586682152422086D-05
 

                          -------------------
                           relaxed densities 
                          -------------------


    ----------------------------------------
     S+T+V CONTRIBUTIONS TO ENERGY GRADIENT 
    ----------------------------------------

 1e-integral 1st. derivatives will be neglected if expon. factor < 0.100000E-10


    -----------------------------------------------
     TWO ELECTRON CONTRIBUTIONS TO ENERGY GRADIENT 
    -----------------------------------------------

 setting up bound for integral derivative estimation

 increment for numerical differentiation : 0.00050000

 biggest AO integral is expected to be    21.668154127
 biggest cartesian 1st derivative AO integral is expected to be    83.347447328

 biggest 1-particle AO density matrix element is expected to be    3.2085614750

 core memory to be involved in 2e-gradient :
   symmetry shell pair data              :         1
   two particle density+dens. estimates  :      8556
   derivative integrals                  :      8498
   derivative integral bound             :     21780
   totally                               :     30276


 setting up bound for integral derivative estimation

 increment for numerical differentiation : 0.00050000

 biggest AO integral is expected to be    21.668154127
 biggest cartesian 1st derivative AO integral is expected to be    83.347447328

 2e-integral 1st. derivatives will be neglected if expon. factor < 0.100000E-06
 outer boundary for 2e-integral derivative neglection is 0.161893E-08

 Integrated ground state density     :   161.9999985890939    


          ------------------------------------------------
           cartesian gradient of the energy (hartree/bohr)
          ------------------------------------------------

  ATOM      1 o           2 c           3 c           4 c           5 c 
dE/dx -0.3383265D-03 -0.6582346D-03  0.1290572D-02  0.8064032D-04  0.8517010D-03
dE/dy  0.1602610D-03 -0.2733408D-02  0.2890797D-02  0.1670110D-02 -0.2847743D-02
dE/dz -0.1135044D-03  0.1916098D-03  0.2913453D-03 -0.7873645D-04 -0.4940169D-03

  ATOM      6 c           7 c           8 s           9 c          10 n 
dE/dx -0.7162962D-03 -0.9838757D-04  0.5402283D-03  0.1254600D-02 -0.1574318D-02
dE/dy -0.2459390D-02  0.2283380D-02  0.1429366D-02 -0.1636259D-02 -0.1699601D-03
dE/dz  0.2764864D-03 -0.1448420D-03  0.1593371D-03 -0.5976406D-03  0.4768098D-03

  ATOM     11 c          12 s          13 n          14 c          15 c 
dE/dx  0.4479856D-03  0.5417623D-04 -0.8988684D-04 -0.2549817D-02  0.8385877D-04
dE/dy  0.2929055D-02  0.8203987D-03 -0.2902425D-02 -0.1206926D-02  0.9337045D-03
dE/dz  0.6796085D-03 -0.3696443D-03 -0.5248203D-03  0.6678487D-03  0.1465038D-02

  ATOM     16 h          17 h          18 o          19 h          20 br
dE/dx -0.3314811D-03  0.3435051D-03  0.1050039D-02 -0.1598947D-03  0.7077271D-04
dE/dy  0.3902921D-03 -0.3008850D-03  0.5281236D-03 -0.1371172D-02 -0.1207551D-03
dE/dz -0.1123543D-02 -0.3279117D-03 -0.2479928D-03 -0.1195170D-03 -0.7696125D-06

  ATOM     21 h 
dE/dx  0.4331120D-03
dE/dy  0.1709875D-02
dE/dz -0.6527266D-04
 
 resulting FORCE  (fx,fy,fz) = (-.155D-04,-.356D-05,-.128D-06)
 resulting MOMENT (mx,my,mz) = (-.316D-04,-.175D-05,-.302D-04)


 **********************************************************************
  |maximum component of gradient| : 0.29290549E-02  (atom 11 c )       
   gradient norm                  : 0.94973255E-02
 **********************************************************************

 exx =      -0.003846 eyy =      -0.006615 ezz =      -0.001324
 eyz =       0.001199 exz =      -0.001163 exy =       0.004420


 <getgrd> : data group $grad  is missing 

   ***  cartesian gradients written onto <gradient>  ***
 
 
 
 ==============================================================================
                           electrostatic moments
 ==============================================================================

 reference point for electrostatic moments:    0.00000   0.00000   0.00000

 
              nuc           gs,e       ->  gs,tot          excit     ->  total
 ------------------------------------------------------------------------------
                          charge      
 ------------------------------------------------------------------------------
         161.000000    -162.000000      -1.000000      -0.000000      -1.000000
 
 ------------------------------------------------------------------------------
                       dipole moment  
 ------------------------------------------------------------------------------
   x    -831.684301     837.500136       5.815835      -0.939888       4.875947
   y     479.858387    -484.904824      -5.046437       0.852121      -4.194316
   z       0.110951      -0.101956       0.008995      -0.002611       0.006383
 
   | dipole moment | =     6.4317 a.u. =    16.3478 debye 
 
 ------------------------------------------------------------------------------
                     quadrupole moment
 ------------------------------------------------------------------------------
  xx   12050.864345  -12242.903783    -192.039438       1.082804    -190.956634
  yy    2375.657980   -2499.601875    -123.943896       7.373301    -116.570595
  zz       5.680880     -98.532208     -92.851328       0.109368     -92.741960
  xy   -2596.360693    2622.602396      26.241703      -8.554893      17.686811
  xz      -6.896362       6.931271       0.034909       0.020498       0.055407
  yz      -2.998398       3.071213       0.072815      -0.013691       0.059124
 
     1/3  trace=    -133.423063
     anisotropy=      93.872754
 
 ==============================================================================
 


    ------------------------------------------------------------------------
         total  cpu-time :  5 minutes and 43 seconds
         total wall-time :  5 minutes and 43 seconds
    ------------------------------------------------------------------------

   ****  egrad : all done  ****


    2018-02-09 18:40:47.596 

$dipole from egrad
  x     4.87594654316115    y    -4.19431641234650    z     0.00638327730439    a.u.
   | dipole | =   16.3479574557  debye
/work/bdnguye2/luc_project/5_brluc/ex_geo_opt/save/numforce/KraftWerk/p057
