 operating system is UNIX !

 ridft (missouri) : TURBOMOLE V7.2 ( 21454 ) 4 Oct 2017 at 12:48:15
 Copyright (C) 2017 TURBOMOLE GmbH, Karlsruhe


    2018-02-09 19:22:03.774 



                                  r i d f t

                        DFT program with RI approximation 
                                for coulomb part 




                                                 
                                 References:     
                                                 
          TURBOMOLE:                             
              R. Ahlrichs, M. Baer, M. Haeser, H. Horn, and
              C. Koelmel
              Electronic structure calculations on workstation
              computers: the program system TURBOMOLE
              Chem. Phys. Lett. 162: 165 (1989)
          Density Functional:                              
              O. Treutler and R. Ahlrichs                      
              Efficient Molecular Numerical Integration Schemes
              J. Chem. Phys. 102: 346 (1995)                   
          Parallel Version:                                
              Performance of parallel TURBOMOLE for Density    
              Functional Calculations                          
              M. v. Arnim and R. Ahlrichs                      
              J. Comp. Chem. 19: 1746 (1998)                   
          RI-J Method:                                     
              Auxiliary Basis Sets to approximate Coulomb      
              Potentials                                       
              Chem. Phys. Lett. 240: 283 (1995)                
              K. Eichkorn, O. Treutler, H. Oehm, M. Haeser     
              and R. Ahlrichs                                  
              Chem. Phys. Lett. 242: 652 (1995)                
                                                           
              Auxiliary Basis Sets for Main Row Atoms and their
              Use to approximate Coulomb Potentials            
              K. Eichkorn, F. Weigend, O. Treutler and         
              R. Ahlrichs                                      
              Theo. Chem. Acc. 97: 119 (1997)                   
                                                           
              Accurate Coulomb-fitting basis sets for H to Rn 
              F. Weigend                                        
              Phys. Chem. Chem. Phys. 8: 1057 (2006)            
                                                           
          Multipole accelerated RI-J (MARI-J):             
              Fast evaluation of the Coulomb potential for     
              electron densities using multipole accelerated   
              resolution of identity approximation             
              M. Sierka, A. Hogekamp and R. Ahlrichs           
              J. Chem. Phys. 118: 9136 (2003)                  
          RI-JK Method:                                     
              A fully direct RI-HF algorithm: Implementation,
              optimised auxiliary basis sets, demonstration of
              accuracy and efficiency                         
              F. Weigend                                      
              Phys. Chem. Chem. Phys. 4: 4285 (2002)           
          Two-component HF and DFT with spin-orbit coupling:  
              Self-consistent treatment of spin-orbit         
              interactions with efficient Hartree-Fock and    
              density functional methods                      
              M. K. Armbruster, F. Weigend, C. van Wüllen and 
              W. Klopper                                      
              Phys. Chem. Chem. Phys. 10: 1748 (2008)         
          Relativistic all-electron 2c calculations           
              An efficient implementation of two-component    
              relativistic exact-decoupling methods for large 
              molecules                                       
              D. Peng, N. Middendorf, F. Weigend, M. Reiher   
              J. Chem. Phys. 138, 184105 (2013)               
                                         




              +--------------------------------------------------+
              |      general information about current run       |
              +--------------------------------------------------+

 
 PBE0 hybrid functional
 exchange:    3/4 (LDA+PBE) + 1/4 HF
 correlation: LDA (PW) + PBE
 A Hybrid-DFT calculation using the RI-J approximation will be carried out.
 Allocatable memory for RI due to $ricore (MB):                  5000


              +--------------------------------------------------+
              | Atomic coordinate, charge and isotop information |
              +--------------------------------------------------+

                    atomic coordinates            atom    charge  isotop
        -12.74193266    6.95534029   -0.00782402    o      8.000     0
        -10.81250746    5.62293465   -0.00456613    c      6.000     0
         -8.30147335    6.75999498   -0.01198363    c      6.000     0
         -6.10647304    5.27631584   -0.00475642    c      6.000     0
         -6.20326032    2.60420844   -0.00121484    c      6.000     0
         -8.59890537    1.44028752    0.01021150    c      6.000     0
        -10.78631464    2.86538636    0.00073256    c      6.000     0
         -3.00479437    6.28968323   -0.00784022    s     16.000     0
         -2.04760353    3.10305708   -0.00465494    c      6.000     0
         -3.87380989    1.42833112    0.00769170    n      7.000     0
          0.62167932    2.60172730   -0.00330699    c      6.000     0
          1.57211786   -0.61090344    0.00957306    s     16.000     0
          2.37551869    4.34622897   -0.00818778    n      7.000     0
          4.76950635    3.38198661   -0.00697067    c      6.000     0
          4.81868673    0.45795607    0.00423475    c      6.000     0
          5.83816738   -0.22650758    1.68736569    h      1.000     0
          5.84217074   -0.23530439   -1.68387777    h      1.000     0
          6.73040438    4.58803752   -0.00983025    o      8.000     0
         -8.23175914    8.82985043   -0.01665556    h      1.000     0
        -13.97865508    1.24552616    0.01335759    br    35.000     0
         -8.69125739   -0.62290894    0.01134322    h      1.000     0
 
       center of nuclear mass  :   -5.47740782    2.93954324    0.00171900
       center of nuclear charge:   -5.16694836    2.97919934    0.00133578

              +--------------------------------------------------+
              |               basis set information              |
              +--------------------------------------------------+

              we will work with the 1s 3p 5d 7f 9g ... basis set
              ...i.e. with spherical basis functions...

   type   atoms  prim   cont   basis
   ---------------------------------------------------------------------------
    o        2     24     14   def2-SV(P)   [3s2p1d|7s4p1d]
    c       10     24     14   def2-SV(P)   [3s2p1d|7s4p1d]
    s        2     36     18   def2-SV(P)   [4s3p1d|10s7p1d]
    n        2     24     14   def2-SV(P)   [3s2p1d|7s4p1d]
    h        4      4      2   def2-SV(P)   [2s|4s]
    br       1     74     32   def2-SV(P)   [5s4p3d|14s10p6d]
   ---------------------------------------------------------------------------
   total:   21    498    272
   ---------------------------------------------------------------------------

   total number of primitive shells          :   88
   total number of contracted shells         :  120
   total number of cartesian basis functions :  291
   total number of SCF-basis functions       :  272


 integral neglect threshold       :  0.11E-10
 integral storage threshold THIZE :  0.10E-04
 integral storage threshold THIME :         5

 RI-J AUXILIARY BASIS SET information:

              we will work with the 1s 3p 5d 7f 9g ... basis set
              ...i.e. with spherical basis functions...

   type   atoms  prim   cont   basis
   ---------------------------------------------------------------------------
    o        2     70     49   def2-SV(P)   [6s4p3d1f1g|12s5p4d2f1g]
    c       10     70     49   def2-SV(P)   [6s4p3d1f1g|12s5p4d2f1g]
    s        2     77     51   def2-SV(P)   [8s4p3d1f1g|14s5p5d2f1g]
    n        2     70     49   def2-SV(P)   [6s4p3d1f1g|12s5p4d2f1g]
    h        4     16     11   def2-SV(P)   [3s1p1d|5s2p1d]
    br       1     89     58   def2-SV(P)   [8s4p3d2f1g|19s5p5d3f1g]
   ---------------------------------------------------------------------------
   total:   21   1287    890
   ---------------------------------------------------------------------------

   total number of primitive shells          :  140
   total number of contracted shells         :  282
   total number of cartesian basis functions : 1101
   total number of SCF-basis functions       :  890


 symmetry group of the molecule :   c1 

 the group has the following generators :
   c1(z)

    1 symmetry operations found

 there are 1 real representations :   a   

 maximum number of shells which are related by symmetry :  1


    mo occupation :
   irrep   mo's   occupied
    a      272       81
 
 number of basis functions   :                    272
 number of occupied orbitals :                     81
 
  
           ------------------
           density functional
           ------------------
 PBE0 hybrid functional
 exchange:    3/4 (LDA+PBE) + 1/4 HF
 correlation: LDA (PW) + PBE

 iterations will be done with small grid
  
 spherical integration : Lebedev's spherical grid
 spherical gridsize    :                     5
    i.e. gridpoints    :                   590
 value for diffuse not defined
 radial integration    : Chebyshev 2nd kind (scaling 3)
 radial gridsize       :                     8
 integration cells     :                    21
 partition function    : becke
 partition sharpness   :                     3
  

 biggest AO integral is expected to be    21.668154127
  
           ------------------------
               RI-J - INFORMATION
           ------------------------
 Contributions to RI integral batches: 
  neglected integral batches:                  2342
  direct contribution:                            0
  memory contribution:                  4918
 Memory core needed for (P|Q) and Cholesky      7 MByte
 Memory core minimum needed except of (P|Q)     1 MByte
 Total minimum memory core needed (sum)         7 MByte
  
 ****************************************
 Memory allocated for RI-J   243 MByte
 ****************************************
                                            

          ------------------------
          nuclear repulsion energy  :   1646.85153870    
          ------------------------


         -----------------
         -S,T+V- integrals
         -----------------

 1e-integrals will be neglected if expon. factor < 0.114844E-11
 
   Difference densities algorithm switched on.
   The maximal number of linear combinations of
   difference densities is                    20 .

 DIIS switched on: error vector is FDS-SDF
 Max. Iterations for DIIS is     :   4
 DIIS matrix (see manual) 
    Scaling factor of diagonals  :  1.200
    threshold for scaling factor :  0.000

 scf convergence criterion : increment of total energy < .1000000D-06
                  and increment of one-electron energy < .1000000D-03

  MOs are in ASCII format !


 automatic virtual orbital shift switched on 
      shift if e(lumo)-e(homo) < 0.10000000    


 reading orbital data $scfmo  from file mos
 orbital characterization : scfconv=7

 dump of DSCF restart information has been disabled !


 Starting SCF iterations

          Overall gridpoints after grid construction =        122148

 ITERATION  ENERGY          1e-ENERGY        2e-ENERGY     NORM[dD(SAO)]  TOL
   1  -4011.7272108537    -8854.1503479     3195.5715984    0.000D+00 0.115D-10
                            Exc = -172.718507298     Coul =  3423.94673321    
                            exK = -55.6566275597    
                              N = 161.99999630    
                            current damping = 0.700
 
          max. resid. norm for Fia-block=  4.370D-03 for orbital      1a         
          max. resid. fock norm         =  1.098D-02 for orbital    196a         

 ITERATION  ENERGY          1e-ENERGY        2e-ENERGY     NORM[dD(SAO)]  TOL
   2  -4011.7272678307    -8854.1340335     3195.5552269    0.336D-01 0.726D-11
                            Exc = -172.717546483      Eck =  3368.27277341    
                              N = 161.99999625    
                            current damping = 0.650
 
          Norm of current diis error: 0.83458E-02
          max. resid. norm for Fia-block=  1.799D-03 for orbital      1a         
          max. resid. fock norm         =  4.502D-03 for orbital    196a         

 ITERATION  ENERGY          1e-ENERGY        2e-ENERGY     NORM[dD(SAO)]  TOL
   3  -4011.7272783867    -8854.1383204     3195.5595033    0.627D-02 0.558D-11
                            Exc = -172.718072309      Eck =  3368.27757560    
                              N = 161.99999622    
                            current damping = 0.600
 
          Norm of current diis error: 0.54692E-02
          max. resid. norm for Fia-block=  7.087D-04 for orbital      1a         
          max. resid. fock norm         =  1.751D-03 for orbital    199a         

 ITERATION  ENERGY          1e-ENERGY        2e-ENERGY     NORM[dD(SAO)]  TOL
   4  -4011.7272829939    -8854.1379498     3195.5591281    0.218D-02 0.518D-11
                            Exc = -172.717648408      Eck =  3368.27677649    
                              N = 161.99999623    
                            current damping = 0.650
 
          Norm of current diis error: 0.20367E-02
          max. resid. norm for Fia-block=  2.657D-04 for orbital      1a         
          max. resid. fock norm         =  7.001D-04 for orbital    196a         

 ITERATION  ENERGY          1e-ENERGY        2e-ENERGY     NORM[dD(SAO)]  TOL
   5  -4011.7272836189    -8854.1334861     3195.5546638    0.144D-02 0.500D-11
                            Exc = -172.717743676      Eck =  3368.27240748    
                              N = 161.99999622    
                            current damping = 0.500
 
          Norm of current diis error: 0.11438E-02
          max. resid. norm for Fia-block=  1.047D-04 for orbital      1a         
          max. resid. fock norm         =  2.682D-04 for orbital    199a         
          mo-orthogonalization: Cholesky decomposition

 ITERATION  ENERGY          1e-ENERGY        2e-ENERGY     NORM[dD(SAO)]  TOL
   6  -4011.7272841131    -8854.1346867     3195.5558639    0.450D-03 0.483D-11
                            Exc = -172.717683707      Eck =  3368.27354763    
                              N = 161.99999624    
                            current damping = 0.550
 
          Norm of current diis error: 0.35668E-03
          max. resid. norm for Fia-block=  3.489D-05 for orbital      1a         
          max. resid. fock norm         =  9.125D-05 for orbital    196a         

 ITERATION  ENERGY          1e-ENERGY        2e-ENERGY     NORM[dD(SAO)]  TOL
   7  -4011.7272841333    -8854.1355090     3195.5566861    0.180D-03 0.474D-11
                            Exc = -172.717706404      Eck =  3368.27439253    
                              N = 161.99999624    
                            current damping = 0.400
 
          Norm of current diis error: 0.18651E-03
          max. resid. norm for Fia-block=  1.238D-05 for orbital      1a         
          max. resid. fock norm         =  3.231D-05 for orbital    196a         

 ITERATION  ENERGY          1e-ENERGY        2e-ENERGY     NORM[dD(SAO)]  TOL
   8  -4011.7272841388    -8854.1348951     3195.5560722    0.627D-04 0.465D-11
                            Exc = -172.717697614      Eck =  3368.27376985    
                              N = 161.99999624    
                            current damping = 0.450
 
          Norm of current diis error: 0.10305E-03
          max. resid. norm for Fia-block=  7.757D-06 for orbital     77a         
          max. resid. fock norm         =  1.567D-05 for orbital    252a         

 ENERGY CONVERGED !

          Overall gridpoints after grid construction =        372395

 ITERATION  ENERGY          1e-ENERGY        2e-ENERGY     NORM[dD(SAO)]  TOL
   9  -4011.7272879429    -8854.1348853     3195.5560587    0.212D-04 0.458D-11
                            Exc = -172.717706041      Eck =  3368.27376472    
                              N = 161.99999869    
                            current damping = 0.300
 
          Norm of current diis error: 0.73026E-04
          max. resid. norm for Fia-block=  3.950D-06 for orbital     81a         
          max. resid. fock norm         =  6.789D-06 for orbital    251a         

 End of SCF iterations

   convergence criteria satisfied after     9 iterations


                  ------------------------------------------ 
                 |  total energy      =  -4011.72728794289  |
                  ------------------------------------------ 
                 :  kinetic energy    =   4002.28202474409  :
                 :  potential energy  =  -8014.00931268697  :
                 :  virial theorem    =      1.99764558692  :
                 :  wavefunction norm =      1.00000000000  :
                  .......................................... 


 <geterg> : there is no data group $energy 


 orbitals $scfmo  will be written to file mos

    irrep                 77a         78a         79a         80a         81a   
 eigenvalues H         -0.17288    -0.16417    -0.12829    -0.11978    -0.07717
            eV          -4.7044     -4.4673     -3.4910     -3.2593     -2.1000
 occupation              2.0000      2.0000      2.0000      2.0000      2.0000 

    irrep                 82a         83a         84a         85a         86a   
 eigenvalues H          0.01591     0.10613     0.11735     0.12654     0.13127
            eV           0.4329      2.8879      3.1932      3.4434      3.5721
 
 
 
 
 ==============================================================================
                           electrostatic moments
 ==============================================================================

 reference point for electrostatic moments:    0.00000   0.00000   0.00000

 
              nuc           elec       ->  total
 ------------------------------------------------------------------------------
                          charge      
 ------------------------------------------------------------------------------
         161.000000    -162.000000      -1.000000
 
 ------------------------------------------------------------------------------
                       dipole moment  
 ------------------------------------------------------------------------------
   x    -831.878687     837.670417       5.791730
   y     479.651094    -484.701975      -5.050881
   z       0.215061      -0.209659       0.005402
 
   | dipole moment | =     7.6848 a.u. =    19.5327 debye 
 
 ------------------------------------------------------------------------------
                     quadrupole moment
 ------------------------------------------------------------------------------
  xx   12054.968876  -12246.934427    -191.965551
  yy    2375.214660   -2499.185935    -123.971276
  zz       5.696249     -98.549137     -92.852888
  xy   -2595.408169    2621.559424      26.151255
  xz      -5.435682       5.439405       0.003722
  yz      -2.385668       2.436399       0.050730
 
     1/3  trace=    -136.263238
     anisotropy=      98.788258
 
 ==============================================================================
 


    ------------------------------------------------------------------------
         total  cpu-time :  1 minutes and  6 seconds
         total wall-time :  1 minutes and  6 seconds
    ------------------------------------------------------------------------

   ****  ridft : all done  ****


    2018-02-09 19:23:09.948 


 egrad (missouri) : TURBOMOLE V7.2 ( 21454 ) 4 Oct 2017 at 12:24:43
 Copyright (C) 2017 TURBOMOLE GmbH, Karlsruhe


    2018-02-09 19:23:09.966 




                               e g r a d

                             TURBOMOLE GmbH


             integral direct evaluation of excited state
                     and polarizability gradients
                 and first-order nonadiabatic couplings



          references (see also programs escf, dscf and ridft) 

          review 
          F. Furche and D. Rappoport,  
          "Density functional methods for excited states: 
          equilibrium structure and electronic spectra",
          ch. III of "Computational Photochemistry", ed. by 
          M. Olivucci, vol. 16 of "Theoretical and Computational 
          Chemistry", Elsevier, Amsterdam, 2005.

          nonorthonormal Krylov space methods 
          F. Furche, B. T. Krull, B. D. Nguyen, J. Kwon, 
          J. Chem. Phys. 144 (2016), 174105.

          RI-J method 
          D. Rappoport and F. Furche, 
          J. Chem. Phys. 122 (2005), 064105.

          Lagrangian method, implementation, benchmarks 
          F. Furche and R. Ahlrichs,
          J. Chem. Phys. 117 (2002), 7433;
          J. Chem. Phys. 121 (2004), 12772 (E).

          Polarizability derivatives, Raman intensities 
          D. Rappoport and F. Furche, 
          J. Chem. Phys. 126 (2007), 201104.

          First-order nonadiabatic couplings 
          R. Send and F. Furche, 
          J. Chem. Phys. 132 (2010), 044107.
                                     




              +--------------------------------------------------+
              | Atomic coordinate, charge and isotop information |
              +--------------------------------------------------+

                    atomic coordinates            atom    charge  isotop
        -12.74193266    6.95534029   -0.00782402    o      8.000     0
        -10.81250746    5.62293465   -0.00456613    c      6.000     0
         -8.30147335    6.75999498   -0.01198363    c      6.000     0
         -6.10647304    5.27631584   -0.00475642    c      6.000     0
         -6.20326032    2.60420844   -0.00121484    c      6.000     0
         -8.59890537    1.44028752    0.01021150    c      6.000     0
        -10.78631464    2.86538636    0.00073256    c      6.000     0
         -3.00479437    6.28968323   -0.00784022    s     16.000     0
         -2.04760353    3.10305708   -0.00465494    c      6.000     0
         -3.87380989    1.42833112    0.00769170    n      7.000     0
          0.62167932    2.60172730   -0.00330699    c      6.000     0
          1.57211786   -0.61090344    0.00957306    s     16.000     0
          2.37551869    4.34622897   -0.00818778    n      7.000     0
          4.76950635    3.38198661   -0.00697067    c      6.000     0
          4.81868673    0.45795607    0.00423475    c      6.000     0
          5.83816738   -0.22650758    1.68736569    h      1.000     0
          5.84217074   -0.23530439   -1.68387777    h      1.000     0
          6.73040438    4.58803752   -0.00983025    o      8.000     0
         -8.23175914    8.82985043   -0.01665556    h      1.000     0
        -13.97865508    1.24552616    0.01335759    br    35.000     0
         -8.69125739   -0.62290894    0.01134322    h      1.000     0
 
       center of nuclear mass  :   -5.47740782    2.93954324    0.00171900
       center of nuclear charge:   -5.16694836    2.97919934    0.00133578

              +--------------------------------------------------+
              |               basis set information              |
              +--------------------------------------------------+

              we will work with the 1s 3p 5d 7f 9g ... basis set
              ...i.e. with spherical basis functions...

   type   atoms  prim   cont   basis
   ---------------------------------------------------------------------------
    o        2     24     14   def2-SV(P)   [3s2p1d|7s4p1d]
    c       10     24     14   def2-SV(P)   [3s2p1d|7s4p1d]
    s        2     36     18   def2-SV(P)   [4s3p1d|10s7p1d]
    n        2     24     14   def2-SV(P)   [3s2p1d|7s4p1d]
    h        4      4      2   def2-SV(P)   [2s|4s]
    br       1     74     32   def2-SV(P)   [5s4p3d|14s10p6d]
   ---------------------------------------------------------------------------
   total:   21    498    272
   ---------------------------------------------------------------------------

   total number of primitive shells          :   88
   total number of contracted shells         :  120
   total number of cartesian basis functions :  291
   total number of SCF-basis functions       :  272


 residuum convergence criterium   :  0.10E-04


 integral neglect threshold       :  0.11E-10
 integral storage threshold THIZE :  0.10E-04
 integral storage threshold THIME :         5

 
             FOUND RI-J FLAG !
 
  
 AUXILIARY BASIS SET information:

              we will work with the 1s 3p 5d 7f 9g ... basis set
              ...i.e. with spherical basis functions...

   type   atoms  prim   cont   basis
   ---------------------------------------------------------------------------
    o        2     70     49   def2-SV(P)   [6s4p3d1f1g|12s5p4d2f1g]
    c       10     70     49   def2-SV(P)   [6s4p3d1f1g|12s5p4d2f1g]
    s        2     77     51   def2-SV(P)   [8s4p3d1f1g|14s5p5d2f1g]
    n        2     70     49   def2-SV(P)   [6s4p3d1f1g|12s5p4d2f1g]
    h        4     16     11   def2-SV(P)   [3s1p1d|5s2p1d]
    br       1     89     58   def2-SV(P)   [8s4p3d2f1g|19s5p5d3f1g]
   ---------------------------------------------------------------------------
   total:   21   1287    890
   ---------------------------------------------------------------------------

   total number of primitive shells          :  140
   total number of contracted shells         :  282
   total number of cartesian basis functions : 1101
   total number of SCF-basis functions       :  890

 RPA SINGLET-EXCITATION-CALCULATION 
 
             FOUND DFT-FLAG !
 

 symmetry group of the molecule :   c1 

 the group has the following generators :
   c1(z)

    1 symmetry operations found

 there are 1 real representations :   a   

 maximum number of shells which are related by symmetry :  1

 IRREP of excited state :   a   
 

 determining totally symmetric integral contributions 
    - equivalent to irreducible tensor elements - 
 which can be formed within each triple of representations :

             representation triple      contributions

              a     a     a               1

    mo occupation :
   irrep   mo's   occupied
    a      272       81
 
 number of basis functions   :                    272
 number of occupied orbitals :                     81
 
  
           ------------------
           density functional
           ------------------
 PBE0 hybrid functional
 exchange:    3/4 (LDA+PBE) + 1/4 HF
 correlation: LDA (PW) + PBE

 iterations will be done with small grid
  
 spherical integration : Lebedev's spherical grid
 spherical gridsize    :                     5
    i.e. gridpoints    :                   590
 value for diffuse not defined
 radial integration    : Chebyshev 2nd kind (scaling 3)
 radial gridsize       :                     8
 integration cells     :                    21
 partition function    : becke
 partition sharpness   :                     3
  
  
           ----------------------
               RI - INFORMATION
           ----------------------

 biggest AO integral is expected to be    21.668154127

 Threshold for integral neglect (rithr2):   0.11E-10
 Threshold for integral neglect (rithr1):   0.11E-10

 Contributions to RI integral batches: 
  neglected integral batches:                  2189
  direct contribution:                            0
  memory contribution:                  5071
 Core memory available (ricore)            5000 MiB
 Core memory needed for (P|Q) and Cholesky 7 MiB
 Core memory used for integrals            244 MiB
  
 ****************************************
 Memory allocated for RIDFT 250 MiB
 ****************************************
                                            
  MOs are in ASCII format !


 reading orbital data $scfmo  from file mos
 orbital characterization : scfconv=7
 preparing numerical integration ....
          Overall gridpoints after grid construction =        122148

 Calculating ground state density on molecular grid

 Integral of ground state density: N =   161.9999962367184    



 number of non-frozen orbitals          :   272
 number of non-frozen occupied orbitals :    81



                        -------------------
                         excitation vector 
                        -------------------


 dimension of super-tensorspace: 2

          IRREP   tensor space dimension   number of roots

           a             15471                   1

 maximum number of Davidson iterations set to   50


 machine precision: 2.22D-16


 logfile sing_a    will be constructed


                       Nonorthonormal Krylov Space Iteration


 total number of roots to be determined:   1


 maximum core memory set to   500 MB,
 corresponding to      379 vectors in CAO basis


 maximum number of simultaneously treated vectors (including degeneracy):        2


 Iteration IRREP Converged      Max. Euclidean
                 roots          residual norm

    1       a        0        3.034205861349864D-02
 
    2       a        0        1.577417855769572D-02
 
    3       a        0        7.115985990479569D-03
 
    4       a        0        8.210151692578288D-02
 
    5       a        0        3.630148564213579D-02
 
    6       a        0        1.263787650574012D-02
 
    7       a        0        5.953929528769181D-03
 
    8       a        0        2.146210352131429D-03
 
    9       a        0        1.236693414518056D-03
 
   10       a        0        5.684815729061419D-04
 
   11       a        0        2.355976252294250D-04
 
   12       a        0        1.023443323783473D-04
 
   13       a        0        3.769824266154915D-05
 
   14       a        0        1.759901852214763D-05
 
   15       a        1        7.209906239652328D-06
 

 converged!


 Switching to fine grid

 preparing numerical integration ....
          Overall gridpoints after grid construction =        372395

 Calculating ground state density on molecular grid

 Integral of ground state density: N =   161.9999986878175    



 Iteration IRREP Converged      Max. Euclidean
                 roots          residual norm

   16       a        0        1.030714656537588D-05
 

 NOTE: Residual norms are larger than 1.00D-05 due to mgrid option!

 Eigenpairs written on logfile sing_a   



 IRREP   Vector     Eigenvalue           Euclidean residual norm

  a         1    8.803424263459303D-02    1.030714656537588D-05
 




                    Selection rules for point group c1  


 Subduction with respect to c1  :

    Polar vector representation: a                           

    Axial vector representation: a                           

    Symmetric second rank tensor representation: a                           




                            Ground state


 Total energy:                           -4011.727287943000    

 Charge:

               elec          nuc         total

          -162.000000   161.000000    -1.000000


 Electric dipole moment:

               elec          nuc         total   

    x      837.670417  -831.878687     5.791730    Norm:              7.684762
    y     -484.701975   479.651094    -5.050881
    z       -0.209659     0.215061     0.005402    Norm / debye:     19.532863


 Electric quadrupole moment:

               elec          nuc         total   

   xx   -12246.934427 12054.968876  -191.965551
   yy    -2499.185935  2375.214660  -123.971276    1/3*trace:      -136.263238
   zz      -98.549137     5.696249   -92.852888
   xy     2621.559424 -2595.408169    26.151255
   xz        5.439405    -5.435682     0.003722    Anisotropy:       98.788258
   yz        2.436399    -2.385668     0.050730



 ==============================================================================

                              I R R E P   a   

 ==============================================================================


 Excitation is electric dipole allowed

 Excitation is magnetic dipole allowed

 Excitation is electric quadrupole allowed




                         1 singlet a excitation


 Total energy:                           -4011.639253700366    

 Excitation energy:                      0.8803424263459303E-01

 Excitation energy / eV:                  2.395534652855816    

 Excitation energy / nm:                  517.5639762032313    

 Excitation energy / cm^(-1):             19321.28289118150    


 Oscillator strength:

    velocity representation:             0.4375024104686144    

    length representation:               0.4968298171387912    

    mixed representation:                0.4662222259567637    


 Rotatory strength:

    velocity representation:            -0.6180343385694899E-05

    velocity rep. / 10^(-40)erg*cm^3:   -0.3992799497604005    

    length representation:              -0.8526008873765820E-05

    length rep. / 10^(-40)erg*cm^3:     -0.5508212379676991    


 Dominant contributions:

      occ. orbital   energy / eV   virt. orbital     energy / eV   |coeff.|^2*100
       81 a              -2.10          82 a               0.43       92.1
 

 Change of electron number:

            -0.000000


 Electric transition dipole moment (velocity rep.):

    x       -2.710215        Norm:                  2.730298
    y        0.330540
    z        0.001525        Norm / debye:          6.939778


 Electric transition dipole moment (length rep.):

    x       -2.887354        Norm:                  2.909535
    y        0.358587
    z        0.000574        Norm / debye:          7.395357


 Magnetic transition dipole moment / i:

    x        0.000004        Norm:                  0.001859
    y        0.000002
    z        0.001859        Norm / Bohr mag.:      0.509570


 Electric quadrupole transition moment:

   xx       23.733002
   yy        2.566902        1/3*trace:             8.724360
   zz       -0.126823
   xy      -11.156293
   xz        0.006263        Anisotropy:           29.760114
   yz       -0.001294
 

 Excited state no.    1 chosen for optimization


                       ----------------------
                        CPKS right-hand side 
                       ----------------------


          IRREP   tensor space dimension   number of roots

           a             15471                   1

                          ----------------
                           CPKS equations 
                          ----------------


 logfile dipl_a    will be constructed

 Switching to coarse grid

 preparing numerical integration ....
          Overall gridpoints after grid construction =        122148


                       Nonorthonormal Krylov Space Iteration


 total number of roots to be determined:   1


 maximum core memory set to   500 MB,
 corresponding to      754 vectors in CAO basis


 maximum number of simultaneously treated vectors (including degeneracy):        1


 Iteration IRREP Converged      Max. Euclidean
                 roots          residual norm

    1       a        0        1.057447584924454D-01
 
    2       a        0        4.893634440840934D-02
 
    3       a        0        2.021653791173664D-02
 
    4       a        0        8.033158967888674D-03
 
    5       a        0        3.378756053528882D-03
 
    6       a        0        9.581928174632891D-04
 
    7       a        0        3.910869536146229D-04
 
    8       a        0        1.400454988610527D-04
 
    9       a        0        5.918046107657739D-05
 
   10       a        0        1.633695939935548D-05
 
   11       a        1        6.920011711590187D-06
 

 converged!


 Switching to fine grid

 preparing numerical integration ....
          Overall gridpoints after grid construction =        372395

 Iteration IRREP Converged      Max. Euclidean
                 roots          residual norm

   12       a        0        1.584142680212799D-05
 

 NOTE: Residual norms are larger than 1.00D-05 due to mgrid option!

 Eigenpairs written on logfile dipl_a   



 IRREP   Vector     Frequency            Euclidean residual norm

  a         1    0.000000000000000D+00    1.584142680212799D-05
 

                          -------------------
                           relaxed densities 
                          -------------------


    ----------------------------------------
     S+T+V CONTRIBUTIONS TO ENERGY GRADIENT 
    ----------------------------------------

 1e-integral 1st. derivatives will be neglected if expon. factor < 0.100000E-10


    -----------------------------------------------
     TWO ELECTRON CONTRIBUTIONS TO ENERGY GRADIENT 
    -----------------------------------------------

 setting up bound for integral derivative estimation

 increment for numerical differentiation : 0.00050000

 biggest AO integral is expected to be    21.668154127
 biggest cartesian 1st derivative AO integral is expected to be    83.347447328

 biggest 1-particle AO density matrix element is expected to be    3.2086938261

 core memory to be involved in 2e-gradient :
   symmetry shell pair data              :         1
   two particle density+dens. estimates  :      8556
   derivative integrals                  :      8498
   derivative integral bound             :     21780
   totally                               :     30276


 setting up bound for integral derivative estimation

 increment for numerical differentiation : 0.00050000

 biggest AO integral is expected to be    21.668154127
 biggest cartesian 1st derivative AO integral is expected to be    83.347447328

 2e-integral 1st. derivatives will be neglected if expon. factor < 0.100000E-06
 outer boundary for 2e-integral derivative neglection is 0.161880E-08

 Integrated ground state density     :   161.9999986878168    


          ------------------------------------------------
           cartesian gradient of the energy (hartree/bohr)
          ------------------------------------------------

  ATOM      1 o           2 c           3 c           4 c           5 c 
dE/dx -0.1697348D-02  0.3200501D-02 -0.1654787D-02  0.1174567D-02  0.1534930D-03
dE/dy  0.4614664D-03  0.2051918D-02 -0.3469085D-02  0.3700596D-02 -0.4691648D-02
dE/dz -0.1167205D-03  0.4670015D-03 -0.3423071D-03  0.4106989D-03 -0.9430477D-03

  ATOM      6 c           7 c           8 s           9 c          10 n 
dE/dx -0.4681361D-03  0.1561002D-02 -0.4280440D-03  0.3065100D-02 -0.3648012D-02
dE/dy  0.2228971D-02 -0.2727581D-02  0.4355668D-03 -0.3493236D-04 -0.3034965D-03
dE/dz  0.8577226D-03 -0.5421184D-03  0.2135518D-03 -0.5170224D-03  0.5835687D-03

  ATOM     11 c          12 s          13 n          14 c          15 c 
dE/dx  0.6136795D-05 -0.1288590D-02  0.2792343D-02 -0.3993744D-02  0.9123619D-03
dE/dy  0.2401983D-03 -0.7238968D-03  0.6827750D-03 -0.1409942D-02  0.2136922D-02
dE/dz -0.5412344D-04  0.1086543D-03  0.1859583D-03 -0.4400240D-03  0.2487150D-02

  ATOM     16 h          17 h          18 o          19 h          20 br
dE/dx -0.5827493D-03  0.9624294D-03  0.5147815D-03  0.3279885D-03 -0.1018393D-02
dE/dy  0.8122897D-05 -0.7251027D-03  0.5439127D-03  0.1835582D-02 -0.4820602D-03
dE/dz -0.8588602D-03 -0.1497537D-02  0.1101293D-03  0.2851632D-04  0.6478407D-04

  ATOM     21 h 
dE/dx  0.9460570D-04
dE/dy  0.2390611D-03
dE/dz -0.2059347D-03
 
 resulting FORCE  (fx,fy,fz) = (-.145D-04,-.265D-05,0.406D-07)
 resulting MOMENT (mx,my,mz) = (-.212D-05,-.289D-05,-.360D-04)


 **********************************************************************
  |maximum component of gradient| : 0.46916482E-02  (atom  5 c )       
   gradient norm                  : 0.12697581E-01
 **********************************************************************

 exx =      -0.004677 eyy =       0.014564 ezz =       0.001098
 eyz =       0.001231 exz =      -0.002659 exy =       0.010677


 <getgrd> : data group $grad  is missing 

   ***  cartesian gradients written onto <gradient>  ***
 
 
 
 ==============================================================================
                           electrostatic moments
 ==============================================================================

 reference point for electrostatic moments:    0.00000   0.00000   0.00000

 
              nuc           gs,e       ->  gs,tot          excit     ->  total
 ------------------------------------------------------------------------------
                          charge      
 ------------------------------------------------------------------------------
         161.000000    -162.000000      -1.000000      -0.000000      -1.000000
 
 ------------------------------------------------------------------------------
                       dipole moment  
 ------------------------------------------------------------------------------
   x    -831.878687     837.670417       5.791730      -0.921281       4.870449
   y     479.651094    -484.701975      -5.050881       0.851720      -4.199161
   z       0.215061      -0.209659       0.005402      -0.002186       0.003216
 
   | dipole moment | =     6.4307 a.u. =    16.3453 debye 
 
 ------------------------------------------------------------------------------
                     quadrupole moment
 ------------------------------------------------------------------------------
  xx   12054.968876  -12246.934427    -191.965551       1.036931    -190.928620
  yy    2375.214660   -2499.185935    -123.971276       7.370581    -116.600695
  zz       5.696249     -98.549137     -92.852888       0.107951     -92.744937
  xy   -2595.408169    2621.559424      26.151255      -8.520339      17.630915
  xz      -5.435682       5.439405       0.003722       0.024034       0.027757
  yz      -2.385668       2.436399       0.050730      -0.012951       0.037779
 
     1/3  trace=    -133.424751
     anisotropy=      93.805334
 
 ==============================================================================
 


    ------------------------------------------------------------------------
         total  cpu-time :  6 minutes and  6 seconds
         total wall-time :  6 minutes and  6 seconds
    ------------------------------------------------------------------------

   ****  egrad : all done  ****


    2018-02-09 19:29:15.955 

$dipole from egrad
  x     4.87044893161476    y    -4.19916092752919    z     0.00321600179994    a.u.
   | dipole | =   16.3453983965  debye
/work/bdnguye2/luc_project/5_brluc/ex_geo_opt/save/numforce/KraftWerk/p064
