 operating system is UNIX !

 ridft (missouri) : TURBOMOLE V7.2 ( 21454 ) 4 Oct 2017 at 12:48:15
 Copyright (C) 2017 TURBOMOLE GmbH, Karlsruhe


    2018-02-09 21:04:54.405 



                                  r i d f t

                        DFT program with RI approximation 
                                for coulomb part 




                                                 
                                 References:     
                                                 
          TURBOMOLE:                             
              R. Ahlrichs, M. Baer, M. Haeser, H. Horn, and
              C. Koelmel
              Electronic structure calculations on workstation
              computers: the program system TURBOMOLE
              Chem. Phys. Lett. 162: 165 (1989)
          Density Functional:                              
              O. Treutler and R. Ahlrichs                      
              Efficient Molecular Numerical Integration Schemes
              J. Chem. Phys. 102: 346 (1995)                   
          Parallel Version:                                
              Performance of parallel TURBOMOLE for Density    
              Functional Calculations                          
              M. v. Arnim and R. Ahlrichs                      
              J. Comp. Chem. 19: 1746 (1998)                   
          RI-J Method:                                     
              Auxiliary Basis Sets to approximate Coulomb      
              Potentials                                       
              Chem. Phys. Lett. 240: 283 (1995)                
              K. Eichkorn, O. Treutler, H. Oehm, M. Haeser     
              and R. Ahlrichs                                  
              Chem. Phys. Lett. 242: 652 (1995)                
                                                           
              Auxiliary Basis Sets for Main Row Atoms and their
              Use to approximate Coulomb Potentials            
              K. Eichkorn, F. Weigend, O. Treutler and         
              R. Ahlrichs                                      
              Theo. Chem. Acc. 97: 119 (1997)                   
                                                           
              Accurate Coulomb-fitting basis sets for H to Rn 
              F. Weigend                                        
              Phys. Chem. Chem. Phys. 8: 1057 (2006)            
                                                           
          Multipole accelerated RI-J (MARI-J):             
              Fast evaluation of the Coulomb potential for     
              electron densities using multipole accelerated   
              resolution of identity approximation             
              M. Sierka, A. Hogekamp and R. Ahlrichs           
              J. Chem. Phys. 118: 9136 (2003)                  
          RI-JK Method:                                     
              A fully direct RI-HF algorithm: Implementation,
              optimised auxiliary basis sets, demonstration of
              accuracy and efficiency                         
              F. Weigend                                      
              Phys. Chem. Chem. Phys. 4: 4285 (2002)           
          Two-component HF and DFT with spin-orbit coupling:  
              Self-consistent treatment of spin-orbit         
              interactions with efficient Hartree-Fock and    
              density functional methods                      
              M. K. Armbruster, F. Weigend, C. van Wüllen and 
              W. Klopper                                      
              Phys. Chem. Chem. Phys. 10: 1748 (2008)         
          Relativistic all-electron 2c calculations           
              An efficient implementation of two-component    
              relativistic exact-decoupling methods for large 
              molecules                                       
              D. Peng, N. Middendorf, F. Weigend, M. Reiher   
              J. Chem. Phys. 138, 184105 (2013)               
                                         




              +--------------------------------------------------+
              |      general information about current run       |
              +--------------------------------------------------+

 
 PBE0 hybrid functional
 exchange:    3/4 (LDA+PBE) + 1/4 HF
 correlation: LDA (PW) + PBE
 A Hybrid-DFT calculation using the RI-J approximation will be carried out.
 Allocatable memory for RI due to $ricore (MB):                  5000


              +--------------------------------------------------+
              | Atomic coordinate, charge and isotop information |
              +--------------------------------------------------+

                    atomic coordinates            atom    charge  isotop
        -12.74235421    6.95860972   -0.00517146    o      8.000     0
        -10.81905933    5.62006882   -0.00072619    c      6.000     0
         -8.30271325    6.76098377   -0.00594292    c      6.000     0
         -6.10914708    5.27041937   -0.00380313    c      6.000     0
         -6.20303294    2.60423037    0.00414536    c      6.000     0
         -8.59693276    1.43473997    0.00634176    c      6.000     0
        -10.78500015    2.86693043    0.00266056    c      6.000     0
         -3.00079083    6.28832365   -0.01482139    s     16.000     0
         -2.04784024    3.10674405   -0.00556399    c      6.000     0
         -3.87107198    1.43214743    0.00182882    n      7.000     0
          0.61788936    2.60516924   -0.00431546    c      6.000     0
          1.57264398   -0.60464325    0.00814421    s     16.000     0
          2.36931203    4.34602993   -0.00753171    n      7.000     0
          4.76970107    3.38662729   -0.00415746    c      6.000     0
          4.81389078    0.45300386    0.00544260    c      6.000     0
          5.84031205   -0.22547332    1.69130979    h      1.000     0
          5.83651657   -0.23678709   -1.67805001    h      1.000     0
          6.73368651    4.58673890   -0.01108790    o      8.000     0
         -8.23415407    8.82589976   -0.01463711    h      1.000     0
        -13.97185426    1.24541406    0.00986206    br    35.000     0
         -8.69056929   -0.62592368    0.01638275    h      1.000     0
 
       center of nuclear mass  :   -5.47590418    2.94004171    0.00054232
       center of nuclear charge:   -5.16564144    2.97968713    0.00029711

              +--------------------------------------------------+
              |               basis set information              |
              +--------------------------------------------------+

              we will work with the 1s 3p 5d 7f 9g ... basis set
              ...i.e. with spherical basis functions...

   type   atoms  prim   cont   basis
   ---------------------------------------------------------------------------
    o        2     24     14   def2-SV(P)   [3s2p1d|7s4p1d]
    c       10     24     14   def2-SV(P)   [3s2p1d|7s4p1d]
    s        2     36     18   def2-SV(P)   [4s3p1d|10s7p1d]
    n        2     24     14   def2-SV(P)   [3s2p1d|7s4p1d]
    h        4      4      2   def2-SV(P)   [2s|4s]
    br       1     74     32   def2-SV(P)   [5s4p3d|14s10p6d]
   ---------------------------------------------------------------------------
   total:   21    498    272
   ---------------------------------------------------------------------------

   total number of primitive shells          :   88
   total number of contracted shells         :  120
   total number of cartesian basis functions :  291
   total number of SCF-basis functions       :  272


 integral neglect threshold       :  0.11E-10
 integral storage threshold THIZE :  0.10E-04
 integral storage threshold THIME :         5

 RI-J AUXILIARY BASIS SET information:

              we will work with the 1s 3p 5d 7f 9g ... basis set
              ...i.e. with spherical basis functions...

   type   atoms  prim   cont   basis
   ---------------------------------------------------------------------------
    o        2     70     49   def2-SV(P)   [6s4p3d1f1g|12s5p4d2f1g]
    c       10     70     49   def2-SV(P)   [6s4p3d1f1g|12s5p4d2f1g]
    s        2     77     51   def2-SV(P)   [8s4p3d1f1g|14s5p5d2f1g]
    n        2     70     49   def2-SV(P)   [6s4p3d1f1g|12s5p4d2f1g]
    h        4     16     11   def2-SV(P)   [3s1p1d|5s2p1d]
    br       1     89     58   def2-SV(P)   [8s4p3d2f1g|19s5p5d3f1g]
   ---------------------------------------------------------------------------
   total:   21   1287    890
   ---------------------------------------------------------------------------

   total number of primitive shells          :  140
   total number of contracted shells         :  282
   total number of cartesian basis functions : 1101
   total number of SCF-basis functions       :  890


 symmetry group of the molecule :   c1 

 the group has the following generators :
   c1(z)

    1 symmetry operations found

 there are 1 real representations :   a   

 maximum number of shells which are related by symmetry :  1


    mo occupation :
   irrep   mo's   occupied
    a      272       81
 
 number of basis functions   :                    272
 number of occupied orbitals :                     81
 
  
           ------------------
           density functional
           ------------------
 PBE0 hybrid functional
 exchange:    3/4 (LDA+PBE) + 1/4 HF
 correlation: LDA (PW) + PBE

 iterations will be done with small grid
  
 spherical integration : Lebedev's spherical grid
 spherical gridsize    :                     5
    i.e. gridpoints    :                   590
 value for diffuse not defined
 radial integration    : Chebyshev 2nd kind (scaling 3)
 radial gridsize       :                     8
 integration cells     :                    21
 partition function    : becke
 partition sharpness   :                     3
  

 biggest AO integral is expected to be    21.668154127
  
           ------------------------
               RI-J - INFORMATION
           ------------------------
 Contributions to RI integral batches: 
  neglected integral batches:                  2342
  direct contribution:                            0
  memory contribution:                  4918
 Memory core needed for (P|Q) and Cholesky      7 MByte
 Memory core minimum needed except of (P|Q)     1 MByte
 Total minimum memory core needed (sum)         7 MByte
  
 ****************************************
 Memory allocated for RI-J   243 MByte
 ****************************************
                                            

          ------------------------
          nuclear repulsion energy  :   1647.36084804    
          ------------------------


         -----------------
         -S,T+V- integrals
         -----------------

 1e-integrals will be neglected if expon. factor < 0.114844E-11
 
   Difference densities algorithm switched on.
   The maximal number of linear combinations of
   difference densities is                    20 .

 DIIS switched on: error vector is FDS-SDF
 Max. Iterations for DIIS is     :   4
 DIIS matrix (see manual) 
    Scaling factor of diagonals  :  1.200
    threshold for scaling factor :  0.000

 scf convergence criterion : increment of total energy < .1000000D-06
                  and increment of one-electron energy < .1000000D-03

  MOs are in ASCII format !


 automatic virtual orbital shift switched on 
      shift if e(lumo)-e(homo) < 0.10000000    


 reading orbital data $scfmo  from file mos
 orbital characterization : scfconv=7

 dump of DSCF restart information has been disabled !


 Starting SCF iterations

          Overall gridpoints after grid construction =        122142

 ITERATION  ENERGY          1e-ENERGY        2e-ENERGY     NORM[dD(SAO)]  TOL
   1  -4011.7270297693    -8855.1584291     3196.0705513    0.000D+00 0.115D-10
                            Exc = -172.720022586     Coul =  3424.44776374    
                            exK = -55.6571898999    
                              N = 161.99999729    
                            current damping = 0.700
 
          max. resid. norm for Fia-block=  2.700D-03 for orbital      1a         
          max. resid. fock norm         =  4.052D-03 for orbital      1a         

 ITERATION  ENERGY          1e-ENERGY        2e-ENERGY     NORM[dD(SAO)]  TOL
   2  -4011.7270493005    -8855.1591032     3196.0712059    0.127D-01 0.726D-11
                            Exc = -172.720287532      Eck =  3368.79149344    
                              N = 161.99999728    
                            current damping = 0.650
 
          Norm of current diis error: 0.55131E-02
          max. resid. norm for Fia-block=  1.112D-03 for orbital      1a         
          max. resid. fock norm         =  1.669D-03 for orbital      1a         

 ITERATION  ENERGY          1e-ENERGY        2e-ENERGY     NORM[dD(SAO)]  TOL
   3  -4011.7270522634    -8855.1587081     3196.0708078    0.569D-02 0.576D-11
                            Exc = -172.720129157      Eck =  3368.79093693    
                              N = 161.99999726    
                            current damping = 0.600
 
          Norm of current diis error: 0.42112E-02
          max. resid. norm for Fia-block=  4.381D-04 for orbital      1a         
          max. resid. fock norm         =  6.609D-04 for orbital    196a         

 ITERATION  ENERGY          1e-ENERGY        2e-ENERGY     NORM[dD(SAO)]  TOL
   4  -4011.7270548735    -8855.1592440     3196.0713411    0.173D-02 0.527D-11
                            Exc = -172.720143264      Eck =  3368.79148434    
                              N = 161.99999728    
                            current damping = 0.650
 
          Norm of current diis error: 0.14262E-02
          max. resid. norm for Fia-block=  1.643D-04 for orbital      1a         
          max. resid. fock norm         =  2.781D-04 for orbital    196a         

 ITERATION  ENERGY          1e-ENERGY        2e-ENERGY     NORM[dD(SAO)]  TOL
   5  -4011.7270551831    -8855.1582748     3196.0703715    0.890D-03 0.512D-11
                            Exc = -172.720263680      Eck =  3368.79063522    
                              N = 161.99999727    
                            current damping = 0.700
 
          Norm of current diis error: 0.68753E-03
          max. resid. norm for Fia-block=  6.473D-05 for orbital      1a         
          max. resid. fock norm         =  9.979D-05 for orbital    193a         
          mo-orthogonalization: Cholesky decomposition

 ITERATION  ENERGY          1e-ENERGY        2e-ENERGY     NORM[dD(SAO)]  TOL
   6  -4011.7270555049    -8855.1589430     3196.0710395    0.322D-03 0.494D-11
                            Exc = -172.720190367      Eck =  3368.79122985    
                              N = 161.99999729    
                            current damping = 0.750
 
          Norm of current diis error: 0.23276E-03
          max. resid. norm for Fia-block=  2.665D-05 for orbital      1a         
          max. resid. fock norm         =  4.331D-05 for orbital    263a         

 ENERGY CONVERGED !

          Overall gridpoints after grid construction =        372402

 ITERATION  ENERGY          1e-ENERGY        2e-ENERGY     NORM[dD(SAO)]  TOL
   7  -4011.7270593149    -8855.1587272     3196.0708198    0.107D-03 0.486D-11
                            Exc = -172.720214692      Eck =  3368.79103451    
                              N = 161.99999858    
                            current damping = 0.800
 
          Norm of current diis error: 0.13651E-03
          max. resid. norm for Fia-block=  1.142D-05 for orbital      1a         
          max. resid. fock norm         =  1.715D-05 for orbital    196a         

 End of SCF iterations

   convergence criteria satisfied after     7 iterations


                  ------------------------------------------ 
                 |  total energy      =  -4011.72705931493  |
                  ------------------------------------------ 
                 :  kinetic energy    =   4002.29575050206  :
                 :  potential energy  =  -8014.02280981699  :
                 :  virial theorem    =      1.99764906518  :
                 :  wavefunction norm =      1.00000000000  :
                  .......................................... 


 <geterg> : there is no data group $energy 


 orbitals $scfmo  will be written to file mos

    irrep                 77a         78a         79a         80a         81a   
 eigenvalues H         -0.17321    -0.16421    -0.12805    -0.11970    -0.07700
            eV          -4.7134     -4.4683     -3.4846     -3.2572     -2.0953
 occupation              2.0000      2.0000      2.0000      2.0000      2.0000 

    irrep                 82a         83a         84a         85a         86a   
 eigenvalues H          0.01590     0.10575     0.11743     0.12791     0.13200
            eV           0.4327      2.8775      3.1955      3.4806      3.5919
 
 
 
 
 ==============================================================================
                           electrostatic moments
 ==============================================================================

 reference point for electrostatic moments:    0.00000   0.00000   0.00000

 
              nuc           elec       ->  total
 ------------------------------------------------------------------------------
                          charge      
 ------------------------------------------------------------------------------
         161.000000    -162.000000      -1.000000
 
 ------------------------------------------------------------------------------
                       dipole moment  
 ------------------------------------------------------------------------------
   x    -831.668272     837.475406       5.807134
   y     479.729628    -484.774258      -5.044630
   z       0.047834      -0.041783       0.006051
 
   | dipole moment | =     7.6923 a.u. =    19.5518 debye 
 
 ------------------------------------------------------------------------------
                     quadrupole moment
 ------------------------------------------------------------------------------
  xx   12048.519891  -12240.525864    -192.005974
  yy    2374.954841   -2498.903594    -123.948753
  zz       5.687729     -98.536838     -92.849109
  xy   -2594.865369    2621.119871      26.254503
  xz      -4.169171       4.189382       0.020210
  yz      -2.630681       2.668396       0.037715
 
     1/3  trace=    -136.267945
     anisotropy=      98.911226
 
 ==============================================================================
 


    ------------------------------------------------------------------------
         total  cpu-time :  1 minutes and  0 seconds
         total wall-time :  1 minutes and  0 seconds
    ------------------------------------------------------------------------

   ****  ridft : all done  ****


    2018-02-09 21:05:53.955 


 egrad (missouri) : TURBOMOLE V7.2 ( 21454 ) 4 Oct 2017 at 12:24:43
 Copyright (C) 2017 TURBOMOLE GmbH, Karlsruhe


    2018-02-09 21:05:53.973 




                               e g r a d

                             TURBOMOLE GmbH


             integral direct evaluation of excited state
                     and polarizability gradients
                 and first-order nonadiabatic couplings



          references (see also programs escf, dscf and ridft) 

          review 
          F. Furche and D. Rappoport,  
          "Density functional methods for excited states: 
          equilibrium structure and electronic spectra",
          ch. III of "Computational Photochemistry", ed. by 
          M. Olivucci, vol. 16 of "Theoretical and Computational 
          Chemistry", Elsevier, Amsterdam, 2005.

          nonorthonormal Krylov space methods 
          F. Furche, B. T. Krull, B. D. Nguyen, J. Kwon, 
          J. Chem. Phys. 144 (2016), 174105.

          RI-J method 
          D. Rappoport and F. Furche, 
          J. Chem. Phys. 122 (2005), 064105.

          Lagrangian method, implementation, benchmarks 
          F. Furche and R. Ahlrichs,
          J. Chem. Phys. 117 (2002), 7433;
          J. Chem. Phys. 121 (2004), 12772 (E).

          Polarizability derivatives, Raman intensities 
          D. Rappoport and F. Furche, 
          J. Chem. Phys. 126 (2007), 201104.

          First-order nonadiabatic couplings 
          R. Send and F. Furche, 
          J. Chem. Phys. 132 (2010), 044107.
                                     




              +--------------------------------------------------+
              | Atomic coordinate, charge and isotop information |
              +--------------------------------------------------+

                    atomic coordinates            atom    charge  isotop
        -12.74235421    6.95860972   -0.00517146    o      8.000     0
        -10.81905933    5.62006882   -0.00072619    c      6.000     0
         -8.30271325    6.76098377   -0.00594292    c      6.000     0
         -6.10914708    5.27041937   -0.00380313    c      6.000     0
         -6.20303294    2.60423037    0.00414536    c      6.000     0
         -8.59693276    1.43473997    0.00634176    c      6.000     0
        -10.78500015    2.86693043    0.00266056    c      6.000     0
         -3.00079083    6.28832365   -0.01482139    s     16.000     0
         -2.04784024    3.10674405   -0.00556399    c      6.000     0
         -3.87107198    1.43214743    0.00182882    n      7.000     0
          0.61788936    2.60516924   -0.00431546    c      6.000     0
          1.57264398   -0.60464325    0.00814421    s     16.000     0
          2.36931203    4.34602993   -0.00753171    n      7.000     0
          4.76970107    3.38662729   -0.00415746    c      6.000     0
          4.81389078    0.45300386    0.00544260    c      6.000     0
          5.84031205   -0.22547332    1.69130979    h      1.000     0
          5.83651657   -0.23678709   -1.67805001    h      1.000     0
          6.73368651    4.58673890   -0.01108790    o      8.000     0
         -8.23415407    8.82589976   -0.01463711    h      1.000     0
        -13.97185426    1.24541406    0.00986206    br    35.000     0
         -8.69056929   -0.62592368    0.01638275    h      1.000     0
 
       center of nuclear mass  :   -5.47590418    2.94004171    0.00054232
       center of nuclear charge:   -5.16564144    2.97968713    0.00029711

              +--------------------------------------------------+
              |               basis set information              |
              +--------------------------------------------------+

              we will work with the 1s 3p 5d 7f 9g ... basis set
              ...i.e. with spherical basis functions...

   type   atoms  prim   cont   basis
   ---------------------------------------------------------------------------
    o        2     24     14   def2-SV(P)   [3s2p1d|7s4p1d]
    c       10     24     14   def2-SV(P)   [3s2p1d|7s4p1d]
    s        2     36     18   def2-SV(P)   [4s3p1d|10s7p1d]
    n        2     24     14   def2-SV(P)   [3s2p1d|7s4p1d]
    h        4      4      2   def2-SV(P)   [2s|4s]
    br       1     74     32   def2-SV(P)   [5s4p3d|14s10p6d]
   ---------------------------------------------------------------------------
   total:   21    498    272
   ---------------------------------------------------------------------------

   total number of primitive shells          :   88
   total number of contracted shells         :  120
   total number of cartesian basis functions :  291
   total number of SCF-basis functions       :  272


 residuum convergence criterium   :  0.10E-04


 integral neglect threshold       :  0.11E-10
 integral storage threshold THIZE :  0.10E-04
 integral storage threshold THIME :         5

 
             FOUND RI-J FLAG !
 
  
 AUXILIARY BASIS SET information:

              we will work with the 1s 3p 5d 7f 9g ... basis set
              ...i.e. with spherical basis functions...

   type   atoms  prim   cont   basis
   ---------------------------------------------------------------------------
    o        2     70     49   def2-SV(P)   [6s4p3d1f1g|12s5p4d2f1g]
    c       10     70     49   def2-SV(P)   [6s4p3d1f1g|12s5p4d2f1g]
    s        2     77     51   def2-SV(P)   [8s4p3d1f1g|14s5p5d2f1g]
    n        2     70     49   def2-SV(P)   [6s4p3d1f1g|12s5p4d2f1g]
    h        4     16     11   def2-SV(P)   [3s1p1d|5s2p1d]
    br       1     89     58   def2-SV(P)   [8s4p3d2f1g|19s5p5d3f1g]
   ---------------------------------------------------------------------------
   total:   21   1287    890
   ---------------------------------------------------------------------------

   total number of primitive shells          :  140
   total number of contracted shells         :  282
   total number of cartesian basis functions : 1101
   total number of SCF-basis functions       :  890

 RPA SINGLET-EXCITATION-CALCULATION 
 
             FOUND DFT-FLAG !
 

 symmetry group of the molecule :   c1 

 the group has the following generators :
   c1(z)

    1 symmetry operations found

 there are 1 real representations :   a   

 maximum number of shells which are related by symmetry :  1

 IRREP of excited state :   a   
 

 determining totally symmetric integral contributions 
    - equivalent to irreducible tensor elements - 
 which can be formed within each triple of representations :

             representation triple      contributions

              a     a     a               1

    mo occupation :
   irrep   mo's   occupied
    a      272       81
 
 number of basis functions   :                    272
 number of occupied orbitals :                     81
 
  
           ------------------
           density functional
           ------------------
 PBE0 hybrid functional
 exchange:    3/4 (LDA+PBE) + 1/4 HF
 correlation: LDA (PW) + PBE

 iterations will be done with small grid
  
 spherical integration : Lebedev's spherical grid
 spherical gridsize    :                     5
    i.e. gridpoints    :                   590
 value for diffuse not defined
 radial integration    : Chebyshev 2nd kind (scaling 3)
 radial gridsize       :                     8
 integration cells     :                    21
 partition function    : becke
 partition sharpness   :                     3
  
  
           ----------------------
               RI - INFORMATION
           ----------------------

 biggest AO integral is expected to be    21.668154127

 Threshold for integral neglect (rithr2):   0.11E-10
 Threshold for integral neglect (rithr1):   0.11E-10

 Contributions to RI integral batches: 
  neglected integral batches:                  2187
  direct contribution:                            0
  memory contribution:                  5073
 Core memory available (ricore)            5000 MiB
 Core memory needed for (P|Q) and Cholesky 7 MiB
 Core memory used for integrals            244 MiB
  
 ****************************************
 Memory allocated for RIDFT 250 MiB
 ****************************************
                                            
  MOs are in ASCII format !


 reading orbital data $scfmo  from file mos
 orbital characterization : scfconv=7
 preparing numerical integration ....
          Overall gridpoints after grid construction =        122142

 Calculating ground state density on molecular grid

 Integral of ground state density: N =   161.9999972893980    



 number of non-frozen orbitals          :   272
 number of non-frozen occupied orbitals :    81



                        -------------------
                         excitation vector 
                        -------------------


 dimension of super-tensorspace: 2

          IRREP   tensor space dimension   number of roots

           a             15471                   1

 maximum number of Davidson iterations set to   50


 machine precision: 2.22D-16


 logfile sing_a    will be constructed


                       Nonorthonormal Krylov Space Iteration


 total number of roots to be determined:   1


 maximum core memory set to   500 MB,
 corresponding to      379 vectors in CAO basis


 maximum number of simultaneously treated vectors (including degeneracy):        2


 Iteration IRREP Converged      Max. Euclidean
                 roots          residual norm

    1       a        0        3.025785902733730D-02
 
    2       a        0        1.581915767593104D-02
 
    3       a        0        9.657150499111084D-03
 
    4       a        0        6.084090792211915D-02
 
    5       a        0        2.888295418877527D-02
 
    6       a        0        1.029003991449378D-02
 
    7       a        0        4.837942487896996D-03
 
    8       a        0        2.080605061382815D-03
 
    9       a        0        1.073541284806316D-03
 
   10       a        0        5.231682944817146D-04
 
   11       a        0        2.152342644781708D-04
 
   12       a        0        9.970456968720865D-05
 
   13       a        0        3.339513442651183D-05
 
   14       a        0        1.687230936530751D-05
 
   15       a        1        6.325126075974624D-06
 

 converged!


 Switching to fine grid

 preparing numerical integration ....
          Overall gridpoints after grid construction =        372402

 Calculating ground state density on molecular grid

 Integral of ground state density: N =   161.9999985824124    



 Iteration IRREP Converged      Max. Euclidean
                 roots          residual norm

   16       a        1        9.686497121517530D-06
 

 converged!

 Eigenpairs written on logfile sing_a   



 IRREP   Vector     Eigenvalue           Euclidean residual norm

  a         1    8.774565410784715D-02    9.686497121517530D-06
 




                    Selection rules for point group c1  


 Subduction with respect to c1  :

    Polar vector representation: a                           

    Axial vector representation: a                           

    Symmetric second rank tensor representation: a                           




                            Ground state


 Total energy:                           -4011.727059315000    

 Charge:

               elec          nuc         total

          -162.000000   161.000000    -1.000000


 Electric dipole moment:

               elec          nuc         total   

    x      837.475406  -831.668272     5.807134    Norm:              7.692278
    y     -484.774258   479.729628    -5.044630
    z       -0.041783     0.047834     0.006051    Norm / debye:     19.551968


 Electric quadrupole moment:

               elec          nuc         total   

   xx   -12240.525864 12048.519891  -192.005974
   yy    -2498.903594  2374.954841  -123.948753    1/3*trace:      -136.267945
   zz      -98.536838     5.687729   -92.849109
   xy     2621.119871 -2594.865369    26.254503
   xz        4.189382    -4.169171     0.020210    Anisotropy:       98.911226
   yz        2.668396    -2.630681     0.037715



 ==============================================================================

                              I R R E P   a   

 ==============================================================================


 Excitation is electric dipole allowed

 Excitation is magnetic dipole allowed

 Excitation is electric quadrupole allowed




                         1 singlet a excitation


 Total energy:                           -4011.639313660892    

 Excitation energy:                      0.8774565410784715E-01

 Excitation energy / eV:                  2.387681756124417    

 Excitation energy / nm:                  519.2662032469279    

 Excitation energy / cm^(-1):             19257.94503084969    


 Oscillator strength:

    velocity representation:             0.4337895150807372    

    length representation:               0.4925225233091510    

    mixed representation:                0.4622230404850994    


 Rotatory strength:

    velocity representation:             0.1310675739724205E-04

    velocity rep. / 10^(-40)erg*cm^3:    0.8467596553300815    

    length representation:               0.1370397300837322E-04

    length rep. / 10^(-40)erg*cm^3:      0.8853426602421571    


 Dominant contributions:

      occ. orbital   energy / eV   virt. orbital     energy / eV   |coeff.|^2*100
       81 a              -2.10          82 a               0.43       92.1
 

 Change of electron number:

            -0.000000


 Electric transition dipole moment (velocity rep.):

    x       -2.703488        Norm:                  2.723155
    y        0.326686
    z        0.001173        Norm / debye:          6.921622


 Electric transition dipole moment (length rep.):

    x       -2.879953        Norm:                  2.901656
    y        0.354227
    z        0.001101        Norm / debye:          7.375329


 Magnetic transition dipole moment / i:

    x       -0.000004        Norm:                  0.001847
    y        0.000003
    z        0.001847        Norm / Bohr mag.:      0.506255


 Electric quadrupole transition moment:

   xx       23.684657
   yy        2.537711        1/3*trace:             8.698592
   zz       -0.126591
   xy      -11.104958
   xz       -0.004158        Anisotropy:           29.674805
   yz        0.004098
 

 Excited state no.    1 chosen for optimization


                       ----------------------
                        CPKS right-hand side 
                       ----------------------


          IRREP   tensor space dimension   number of roots

           a             15471                   1

                          ----------------
                           CPKS equations 
                          ----------------


 logfile dipl_a    will be constructed

 Switching to coarse grid

 preparing numerical integration ....
          Overall gridpoints after grid construction =        122142


                       Nonorthonormal Krylov Space Iteration


 total number of roots to be determined:   1


 maximum core memory set to   500 MB,
 corresponding to      754 vectors in CAO basis


 maximum number of simultaneously treated vectors (including degeneracy):        1


 Iteration IRREP Converged      Max. Euclidean
                 roots          residual norm

    1       a        0        1.058349198149128D-01
 
    2       a        0        4.901662559616381D-02
 
    3       a        0        2.027587198431162D-02
 
    4       a        0        8.060473866780792D-03
 
    5       a        0        3.392232784700817D-03
 
    6       a        0        9.648013756249705D-04
 
    7       a        0        3.922591821302147D-04
 
    8       a        0        1.410507831437078D-04
 
    9       a        0        5.961877581081387D-05
 
   10       a        0        1.641937721344346D-05
 
   11       a        1        6.928954199201878D-06
 

 converged!


 Switching to fine grid

 preparing numerical integration ....
          Overall gridpoints after grid construction =        372402

 Iteration IRREP Converged      Max. Euclidean
                 roots          residual norm

   12       a        0        1.589501717822361D-05
 

 NOTE: Residual norms are larger than 1.00D-05 due to mgrid option!

 Eigenpairs written on logfile dipl_a   



 IRREP   Vector     Frequency            Euclidean residual norm

  a         1    0.000000000000000D+00    1.589501717822361D-05
 

                          -------------------
                           relaxed densities 
                          -------------------


    ----------------------------------------
     S+T+V CONTRIBUTIONS TO ENERGY GRADIENT 
    ----------------------------------------

 1e-integral 1st. derivatives will be neglected if expon. factor < 0.100000E-10


    -----------------------------------------------
     TWO ELECTRON CONTRIBUTIONS TO ENERGY GRADIENT 
    -----------------------------------------------

 setting up bound for integral derivative estimation

 increment for numerical differentiation : 0.00050000

 biggest AO integral is expected to be    21.668154127
 biggest cartesian 1st derivative AO integral is expected to be    83.347447328

 biggest 1-particle AO density matrix element is expected to be    3.2085677369

 core memory to be involved in 2e-gradient :
   symmetry shell pair data              :         1
   two particle density+dens. estimates  :      8556
   derivative integrals                  :      8498
   derivative integral bound             :     21780
   totally                               :     30276


 setting up bound for integral derivative estimation

 increment for numerical differentiation : 0.00050000

 biggest AO integral is expected to be    21.668154127
 biggest cartesian 1st derivative AO integral is expected to be    83.347447328

 2e-integral 1st. derivatives will be neglected if expon. factor < 0.100000E-06
 outer boundary for 2e-integral derivative neglection is 0.161892E-08

 Integrated ground state density     :   161.9999985824119    


          ------------------------------------------------
           cartesian gradient of the energy (hartree/bohr)
          ------------------------------------------------

  ATOM      1 o           2 c           3 c           4 c           5 c 
dE/dx -0.4051550D-03 -0.6266029D-03 -0.9383962D-03  0.4072065D-03  0.2866833D-03
dE/dy  0.7519913D-03 -0.9463849D-04  0.3384773D-03 -0.3163215D-03 -0.2402578D-02
dE/dz -0.1385765D-03  0.3942659D-03 -0.1133316D-04  0.6293782D-04  0.2756810D-03

  ATOM      6 c           7 c           8 s           9 c          10 n 
dE/dx  0.3820352D-03  0.6626684D-03  0.1731403D-02  0.3319909D-02 -0.2800954D-02
dE/dy -0.1065867D-02 -0.3847523D-03 -0.1770798D-03  0.2052809D-03  0.9798857D-03
dE/dz -0.2515536D-03 -0.2403836D-03 -0.1062763D-03 -0.4986282D-05 -0.1283354D-03

  ATOM     11 c          12 s          13 n          14 c          15 c 
dE/dx -0.8631866D-03  0.9502284D-04 -0.9418732D-03 -0.2535160D-02 -0.1025472D-03
dE/dy  0.1718512D-02  0.8053860D-03 -0.1431941D-02  0.7229835D-03 -0.7937704D-03
dE/dz -0.1406859D-03 -0.4546608D-04  0.7615114D-04  0.2142377D-03  0.4801877D-04

  ATOM     16 h          17 h          18 o          19 h          20 br
dE/dx  0.2746250D-03  0.1290086D-03  0.1494236D-02  0.1187933D-03  0.1186524D-03
dE/dy -0.8197448D-04 -0.1661093D-03  0.1870370D-03  0.1246567D-03  0.8763721D-04
dE/dz  0.2578041D-04 -0.4548828D-04 -0.1120087D-03 -0.3809075D-04  0.2461135D-04

  ATOM     21 h 
dE/dx  0.1785141D-03
dE/dy  0.9901100D-03
dE/dz  0.1415314D-03
 
 resulting FORCE  (fx,fy,fz) = (-.151D-04,-.308D-05,0.310D-07)
 resulting MOMENT (mx,my,mz) = (0.639D-05,-.837D-05,-.433D-04)


 **********************************************************************
  |maximum component of gradient| : 0.33199088E-02  (atom  9 c )       
   gradient norm                  : 0.72022953E-02
 **********************************************************************

 exx =      -0.003085 eyy =      -0.001278 ezz =       0.000124
 eyz =       0.000140 exz =       0.000222 exy =       0.002638


 <getgrd> : data group $grad  is missing 

   ***  cartesian gradients written onto <gradient>  ***
 
 
 
 ==============================================================================
                           electrostatic moments
 ==============================================================================

 reference point for electrostatic moments:    0.00000   0.00000   0.00000

 
              nuc           gs,e       ->  gs,tot          excit     ->  total
 ------------------------------------------------------------------------------
                          charge      
 ------------------------------------------------------------------------------
         161.000000    -162.000000      -1.000000      -0.000000      -1.000000
 
 ------------------------------------------------------------------------------
                       dipole moment  
 ------------------------------------------------------------------------------
   x    -831.668272     837.475406       5.807134      -0.934954       4.872181
   y     479.729628    -484.774258      -5.044630       0.852446      -4.192184
   z       0.047834      -0.041783       0.006051      -0.001874       0.004177
 
   | dipole moment | =     6.4275 a.u. =    16.3370 debye 
 
 ------------------------------------------------------------------------------
                     quadrupole moment
 ------------------------------------------------------------------------------
  xx   12048.519891  -12240.525864    -192.005974       1.076294    -190.929680
  yy    2374.954841   -2498.903594    -123.948753       7.376913    -116.571840
  zz       5.687729     -98.536838     -92.849109       0.109914     -92.739195
  xy   -2594.865369    2621.119871      26.254503      -8.550058      17.704445
  xz      -4.169171       4.189382       0.020210       0.014530       0.034740
  yz      -2.630681       2.668396       0.037715      -0.009974       0.027741
 
     1/3  trace=    -133.413572
     anisotropy=      93.859338
 
 ==============================================================================
 


    ------------------------------------------------------------------------
         total  cpu-time :  5 minutes and 52 seconds
         total wall-time :  5 minutes and 52 seconds
    ------------------------------------------------------------------------

   ****  egrad : all done  ****


    2018-02-09 21:11:45.972 

$dipole from egrad
  x     4.87218077442560    y    -4.19218407628910    z     0.00417711543072    a.u.
   | dipole | =   16.3371621364  debye
/work/bdnguye2/luc_project/5_brluc/ex_geo_opt/save/numforce/KraftWerk/p079
