 operating system is UNIX !

 ridft (missouri) : TURBOMOLE V7.2 ( 21454 ) 4 Oct 2017 at 12:48:15
 Copyright (C) 2017 TURBOMOLE GmbH, Karlsruhe


    2018-02-09 21:32:14.035 



                                  r i d f t

                        DFT program with RI approximation 
                                for coulomb part 




                                                 
                                 References:     
                                                 
          TURBOMOLE:                             
              R. Ahlrichs, M. Baer, M. Haeser, H. Horn, and
              C. Koelmel
              Electronic structure calculations on workstation
              computers: the program system TURBOMOLE
              Chem. Phys. Lett. 162: 165 (1989)
          Density Functional:                              
              O. Treutler and R. Ahlrichs                      
              Efficient Molecular Numerical Integration Schemes
              J. Chem. Phys. 102: 346 (1995)                   
          Parallel Version:                                
              Performance of parallel TURBOMOLE for Density    
              Functional Calculations                          
              M. v. Arnim and R. Ahlrichs                      
              J. Comp. Chem. 19: 1746 (1998)                   
          RI-J Method:                                     
              Auxiliary Basis Sets to approximate Coulomb      
              Potentials                                       
              Chem. Phys. Lett. 240: 283 (1995)                
              K. Eichkorn, O. Treutler, H. Oehm, M. Haeser     
              and R. Ahlrichs                                  
              Chem. Phys. Lett. 242: 652 (1995)                
                                                           
              Auxiliary Basis Sets for Main Row Atoms and their
              Use to approximate Coulomb Potentials            
              K. Eichkorn, F. Weigend, O. Treutler and         
              R. Ahlrichs                                      
              Theo. Chem. Acc. 97: 119 (1997)                   
                                                           
              Accurate Coulomb-fitting basis sets for H to Rn 
              F. Weigend                                        
              Phys. Chem. Chem. Phys. 8: 1057 (2006)            
                                                           
          Multipole accelerated RI-J (MARI-J):             
              Fast evaluation of the Coulomb potential for     
              electron densities using multipole accelerated   
              resolution of identity approximation             
              M. Sierka, A. Hogekamp and R. Ahlrichs           
              J. Chem. Phys. 118: 9136 (2003)                  
          RI-JK Method:                                     
              A fully direct RI-HF algorithm: Implementation,
              optimised auxiliary basis sets, demonstration of
              accuracy and efficiency                         
              F. Weigend                                      
              Phys. Chem. Chem. Phys. 4: 4285 (2002)           
          Two-component HF and DFT with spin-orbit coupling:  
              Self-consistent treatment of spin-orbit         
              interactions with efficient Hartree-Fock and    
              density functional methods                      
              M. K. Armbruster, F. Weigend, C. van Wüllen and 
              W. Klopper                                      
              Phys. Chem. Chem. Phys. 10: 1748 (2008)         
          Relativistic all-electron 2c calculations           
              An efficient implementation of two-component    
              relativistic exact-decoupling methods for large 
              molecules                                       
              D. Peng, N. Middendorf, F. Weigend, M. Reiher   
              J. Chem. Phys. 138, 184105 (2013)               
                                         




              +--------------------------------------------------+
              |      general information about current run       |
              +--------------------------------------------------+

 
 PBE0 hybrid functional
 exchange:    3/4 (LDA+PBE) + 1/4 HF
 correlation: LDA (PW) + PBE
 A Hybrid-DFT calculation using the RI-J approximation will be carried out.
 Allocatable memory for RI due to $ricore (MB):                  5000


              +--------------------------------------------------+
              | Atomic coordinate, charge and isotop information |
              +--------------------------------------------------+

                    atomic coordinates            atom    charge  isotop
        -12.74193266    6.95941775   -0.00782402    o      8.000     0
        -10.81940133    5.62293465   -0.00388178    c      6.000     0
         -8.30147335    6.76641616   -0.01198363    c      6.000     0
         -6.11159269    5.27631584   -0.00764130    c      6.000     0
         -6.20326032    2.61132076   -0.00121484    c      6.000     0
         -8.60093319    1.44028752    0.00449985    c      6.000     0
        -10.78631464    2.87135938    0.00073256    c      6.000     0
         -3.00320847    6.28968323   -0.01490868    s     16.000     0
         -2.04760353    3.10635357   -0.00465494    c      6.000     0
         -3.86901842    1.42833112    0.00108559    n      7.000     0
          0.62167932    2.60149887   -0.00330699    c      6.000     0
          1.57888175   -0.61090344    0.00512947    s     16.000     0
          2.37551869    4.34253440   -0.00818778    n      7.000     0
          4.77650189    3.38198661   -0.00810814    c      6.000     0
          4.81868673    0.45174621    0.00423475    c      6.000     0
          5.84359418   -0.22650758    1.68982709    h      1.000     0
          5.83548231   -0.23530439   -1.67925787    h      1.000     0
          6.73040438    4.59153485   -0.00983025    o      8.000     0
         -8.23879475    8.82985043   -0.01529318    h      1.000     0
        -13.97865508    1.25162073    0.01335759    br    35.000     0
         -8.69682947   -0.62290894    0.01638275    h      1.000     0
 
       center of nuclear mass  :   -5.47668803    2.94183767    0.00002256
       center of nuclear charge:   -5.16625897    2.98134987   -0.00034900

              +--------------------------------------------------+
              |               basis set information              |
              +--------------------------------------------------+

              we will work with the 1s 3p 5d 7f 9g ... basis set
              ...i.e. with spherical basis functions...

   type   atoms  prim   cont   basis
   ---------------------------------------------------------------------------
    o        2     24     14   def2-SV(P)   [3s2p1d|7s4p1d]
    c       10     24     14   def2-SV(P)   [3s2p1d|7s4p1d]
    s        2     36     18   def2-SV(P)   [4s3p1d|10s7p1d]
    n        2     24     14   def2-SV(P)   [3s2p1d|7s4p1d]
    h        4      4      2   def2-SV(P)   [2s|4s]
    br       1     74     32   def2-SV(P)   [5s4p3d|14s10p6d]
   ---------------------------------------------------------------------------
   total:   21    498    272
   ---------------------------------------------------------------------------

   total number of primitive shells          :   88
   total number of contracted shells         :  120
   total number of cartesian basis functions :  291
   total number of SCF-basis functions       :  272


 integral neglect threshold       :  0.11E-10
 integral storage threshold THIZE :  0.10E-04
 integral storage threshold THIME :         5

 RI-J AUXILIARY BASIS SET information:

              we will work with the 1s 3p 5d 7f 9g ... basis set
              ...i.e. with spherical basis functions...

   type   atoms  prim   cont   basis
   ---------------------------------------------------------------------------
    o        2     70     49   def2-SV(P)   [6s4p3d1f1g|12s5p4d2f1g]
    c       10     70     49   def2-SV(P)   [6s4p3d1f1g|12s5p4d2f1g]
    s        2     77     51   def2-SV(P)   [8s4p3d1f1g|14s5p5d2f1g]
    n        2     70     49   def2-SV(P)   [6s4p3d1f1g|12s5p4d2f1g]
    h        4     16     11   def2-SV(P)   [3s1p1d|5s2p1d]
    br       1     89     58   def2-SV(P)   [8s4p3d2f1g|19s5p5d3f1g]
   ---------------------------------------------------------------------------
   total:   21   1287    890
   ---------------------------------------------------------------------------

   total number of primitive shells          :  140
   total number of contracted shells         :  282
   total number of cartesian basis functions : 1101
   total number of SCF-basis functions       :  890


 symmetry group of the molecule :   c1 

 the group has the following generators :
   c1(z)

    1 symmetry operations found

 there are 1 real representations :   a   

 maximum number of shells which are related by symmetry :  1


    mo occupation :
   irrep   mo's   occupied
    a      272       81
 
 number of basis functions   :                    272
 number of occupied orbitals :                     81
 
  
           ------------------
           density functional
           ------------------
 PBE0 hybrid functional
 exchange:    3/4 (LDA+PBE) + 1/4 HF
 correlation: LDA (PW) + PBE

 iterations will be done with small grid
  
 spherical integration : Lebedev's spherical grid
 spherical gridsize    :                     5
    i.e. gridpoints    :                   590
 value for diffuse not defined
 radial integration    : Chebyshev 2nd kind (scaling 3)
 radial gridsize       :                     8
 integration cells     :                    21
 partition function    : becke
 partition sharpness   :                     3
  

 biggest AO integral is expected to be    21.668154127
  
           ------------------------
               RI-J - INFORMATION
           ------------------------
 Contributions to RI integral batches: 
  neglected integral batches:                  2343
  direct contribution:                            0
  memory contribution:                  4917
 Memory core needed for (P|Q) and Cholesky      7 MByte
 Memory core minimum needed except of (P|Q)     1 MByte
 Total minimum memory core needed (sum)         7 MByte
  
 ****************************************
 Memory allocated for RI-J   243 MByte
 ****************************************
                                            

          ------------------------
          nuclear repulsion energy  :   1646.78104608    
          ------------------------


         -----------------
         -S,T+V- integrals
         -----------------

 1e-integrals will be neglected if expon. factor < 0.114844E-11
 
   Difference densities algorithm switched on.
   The maximal number of linear combinations of
   difference densities is                    20 .

 DIIS switched on: error vector is FDS-SDF
 Max. Iterations for DIIS is     :   4
 DIIS matrix (see manual) 
    Scaling factor of diagonals  :  1.200
    threshold for scaling factor :  0.000

 scf convergence criterion : increment of total energy < .1000000D-06
                  and increment of one-electron energy < .1000000D-03

  MOs are in ASCII format !


 automatic virtual orbital shift switched on 
      shift if e(lumo)-e(homo) < 0.10000000    


 reading orbital data $scfmo  from file mos
 orbital characterization : scfconv=7

 dump of DSCF restart information has been disabled !


 Starting SCF iterations

          Overall gridpoints after grid construction =        122149

 ITERATION  ENERGY          1e-ENERGY        2e-ENERGY     NORM[dD(SAO)]  TOL
   1  -4011.7270275678    -8854.0051925     3195.4971189    0.000D+00 0.115D-10
                            Exc = -172.718572924     Coul =  3423.87241788    
                            exK = -55.6567260647    
                              N = 161.99999755    
                            current damping = 0.700
 
          max. resid. norm for Fia-block=  2.392D-03 for orbital      1a         
          max. resid. fock norm         =  4.864D-03 for orbital    269a         

 ITERATION  ENERGY          1e-ENERGY        2e-ENERGY     NORM[dD(SAO)]  TOL
   2  -4011.7270488141    -8854.0044093     3195.4963144    0.157D-01 0.726D-11
                            Exc = -172.719110392      Eck =  3368.21542482    
                              N = 161.99999752    
                            current damping = 0.650
 
          Norm of current diis error: 0.50820E-02
          max. resid. norm for Fia-block=  9.851D-04 for orbital      1a         
          max. resid. fock norm         =  2.058D-03 for orbital    269a         

 ITERATION  ENERGY          1e-ENERGY        2e-ENERGY     NORM[dD(SAO)]  TOL
   3  -4011.7270522597    -8854.0139030     3195.5058047    0.508D-02 0.562D-11
                            Exc = -172.718826642      Eck =  3368.22463133    
                              N = 161.99999752    
                            current damping = 0.600
 
          Norm of current diis error: 0.35826E-02
          max. resid. norm for Fia-block=  3.882D-04 for orbital      1a         
          max. resid. fock norm         =  7.791D-04 for orbital    269a         

 ITERATION  ENERGY          1e-ENERGY        2e-ENERGY     NORM[dD(SAO)]  TOL
   4  -4011.7270543761    -8854.0077622     3195.4996618    0.162D-02 0.523D-11
                            Exc = -172.719180341      Eck =  3368.21884210    
                              N = 161.99999751    
                            current damping = 0.650
 
          Norm of current diis error: 0.13499E-02
          max. resid. norm for Fia-block=  1.457D-04 for orbital      1a         
          max. resid. fock norm         =  3.070D-04 for orbital    269a         

 ITERATION  ENERGY          1e-ENERGY        2e-ENERGY     NORM[dD(SAO)]  TOL
   5  -4011.7270546875    -8854.0085517     3195.5004510    0.892D-03 0.502D-11
                            Exc = -172.719083457      Eck =  3368.21953442    
                              N = 161.99999751    
                            current damping = 0.700
 
          Norm of current diis error: 0.67075E-03
          max. resid. norm for Fia-block=  5.734D-05 for orbital      1a         
          max. resid. fock norm         =  1.170D-04 for orbital    269a         
          mo-orthogonalization: Cholesky decomposition

 ITERATION  ENERGY          1e-ENERGY        2e-ENERGY     NORM[dD(SAO)]  TOL
   6  -4011.7270550018    -8854.0092406     3195.5011395    0.271D-03 0.487D-11
                            Exc = -172.719108958      Eck =  3368.22024848    
                              N = 161.99999753    
                            current damping = 0.550
 
          Norm of current diis error: 0.20185E-03
          max. resid. norm for Fia-block=  2.362D-05 for orbital      1a         
          max. resid. fock norm         =  4.973D-05 for orbital    269a         

 ENERGY CONVERGED !

          Overall gridpoints after grid construction =        372410

 ITERATION  ENERGY          1e-ENERGY        2e-ENERGY     NORM[dD(SAO)]  TOL
   7  -4011.7270584713    -8854.0092904     3195.5011859    0.137D-03 0.478D-11
                            Exc = -172.719128939      Eck =  3368.22031482    
                              N = 161.99999856    
                            current damping = 0.400
 
          Norm of current diis error: 0.14316E-03
          max. resid. norm for Fia-block=  9.379D-06 for orbital     72a         
          max. resid. fock norm         =  1.756D-05 for orbital    257a         

 End of SCF iterations

   convergence criteria satisfied after     7 iterations


                  ------------------------------------------ 
                 |  total energy      =  -4011.72705847133  |
                  ------------------------------------------ 
                 :  kinetic energy    =   4002.29277584037  :
                 :  potential energy  =  -8014.01983431170  :
                 :  virial theorem    =      1.99764832390  :
                 :  wavefunction norm =      1.00000000000  :
                  .......................................... 


 <geterg> : there is no data group $energy 


 orbitals $scfmo  will be written to file mos

    irrep                 77a         78a         79a         80a         81a   
 eigenvalues H         -0.17367    -0.16427    -0.12811    -0.11961    -0.07684
            eV          -4.7258     -4.4701     -3.4860     -3.2548     -2.0908
 occupation              2.0000      2.0000      2.0000      2.0000      2.0000 

    irrep                 82a         83a         84a         85a         86a   
 eigenvalues H          0.01606     0.10606     0.11772     0.12735     0.13168
            eV           0.4370      2.8860      3.2034      3.4655      3.5833
 
 
 
 
 ==============================================================================
                           electrostatic moments
 ==============================================================================

 reference point for electrostatic moments:    0.00000   0.00000   0.00000

 
              nuc           elec       ->  total
 ------------------------------------------------------------------------------
                          charge      
 ------------------------------------------------------------------------------
         161.000000    -162.000000      -1.000000
 
 ------------------------------------------------------------------------------
                       dipole moment  
 ------------------------------------------------------------------------------
   x    -831.767694     837.593248       5.825554
   y     479.997329    -485.042102      -5.044773
   z      -0.056189       0.063104       0.006915
 
   | dipole moment | =     7.7063 a.u. =    19.5874 debye 
 
 ------------------------------------------------------------------------------
                     quadrupole moment
 ------------------------------------------------------------------------------
  xx   12056.975821  -12249.001650    -192.025828
  yy    2377.264428   -2501.220865    -123.956437
  zz       5.690021     -98.544214     -92.854193
  xy   -2600.057874    2626.315750      26.257876
  xz      -4.698081       4.689750      -0.008331
  yz      -3.251254       3.299051       0.047796
 
     1/3  trace=    -136.278820
     anisotropy=      98.925920
 
 ==============================================================================
 


    ------------------------------------------------------------------------
         total  cpu-time :  54.20 seconds
         total wall-time :  54.20 seconds
    ------------------------------------------------------------------------

   ****  ridft : all done  ****


    2018-02-09 21:33:08.221 


 egrad (missouri) : TURBOMOLE V7.2 ( 21454 ) 4 Oct 2017 at 12:24:43
 Copyright (C) 2017 TURBOMOLE GmbH, Karlsruhe


    2018-02-09 21:33:08.231 




                               e g r a d

                             TURBOMOLE GmbH


             integral direct evaluation of excited state
                     and polarizability gradients
                 and first-order nonadiabatic couplings



          references (see also programs escf, dscf and ridft) 

          review 
          F. Furche and D. Rappoport,  
          "Density functional methods for excited states: 
          equilibrium structure and electronic spectra",
          ch. III of "Computational Photochemistry", ed. by 
          M. Olivucci, vol. 16 of "Theoretical and Computational 
          Chemistry", Elsevier, Amsterdam, 2005.

          nonorthonormal Krylov space methods 
          F. Furche, B. T. Krull, B. D. Nguyen, J. Kwon, 
          J. Chem. Phys. 144 (2016), 174105.

          RI-J method 
          D. Rappoport and F. Furche, 
          J. Chem. Phys. 122 (2005), 064105.

          Lagrangian method, implementation, benchmarks 
          F. Furche and R. Ahlrichs,
          J. Chem. Phys. 117 (2002), 7433;
          J. Chem. Phys. 121 (2004), 12772 (E).

          Polarizability derivatives, Raman intensities 
          D. Rappoport and F. Furche, 
          J. Chem. Phys. 126 (2007), 201104.

          First-order nonadiabatic couplings 
          R. Send and F. Furche, 
          J. Chem. Phys. 132 (2010), 044107.
                                     




              +--------------------------------------------------+
              | Atomic coordinate, charge and isotop information |
              +--------------------------------------------------+

                    atomic coordinates            atom    charge  isotop
        -12.74193266    6.95941775   -0.00782402    o      8.000     0
        -10.81940133    5.62293465   -0.00388178    c      6.000     0
         -8.30147335    6.76641616   -0.01198363    c      6.000     0
         -6.11159269    5.27631584   -0.00764130    c      6.000     0
         -6.20326032    2.61132076   -0.00121484    c      6.000     0
         -8.60093319    1.44028752    0.00449985    c      6.000     0
        -10.78631464    2.87135938    0.00073256    c      6.000     0
         -3.00320847    6.28968323   -0.01490868    s     16.000     0
         -2.04760353    3.10635357   -0.00465494    c      6.000     0
         -3.86901842    1.42833112    0.00108559    n      7.000     0
          0.62167932    2.60149887   -0.00330699    c      6.000     0
          1.57888175   -0.61090344    0.00512947    s     16.000     0
          2.37551869    4.34253440   -0.00818778    n      7.000     0
          4.77650189    3.38198661   -0.00810814    c      6.000     0
          4.81868673    0.45174621    0.00423475    c      6.000     0
          5.84359418   -0.22650758    1.68982709    h      1.000     0
          5.83548231   -0.23530439   -1.67925787    h      1.000     0
          6.73040438    4.59153485   -0.00983025    o      8.000     0
         -8.23879475    8.82985043   -0.01529318    h      1.000     0
        -13.97865508    1.25162073    0.01335759    br    35.000     0
         -8.69682947   -0.62290894    0.01638275    h      1.000     0
 
       center of nuclear mass  :   -5.47668803    2.94183767    0.00002256
       center of nuclear charge:   -5.16625897    2.98134987   -0.00034900

              +--------------------------------------------------+
              |               basis set information              |
              +--------------------------------------------------+

              we will work with the 1s 3p 5d 7f 9g ... basis set
              ...i.e. with spherical basis functions...

   type   atoms  prim   cont   basis
   ---------------------------------------------------------------------------
    o        2     24     14   def2-SV(P)   [3s2p1d|7s4p1d]
    c       10     24     14   def2-SV(P)   [3s2p1d|7s4p1d]
    s        2     36     18   def2-SV(P)   [4s3p1d|10s7p1d]
    n        2     24     14   def2-SV(P)   [3s2p1d|7s4p1d]
    h        4      4      2   def2-SV(P)   [2s|4s]
    br       1     74     32   def2-SV(P)   [5s4p3d|14s10p6d]
   ---------------------------------------------------------------------------
   total:   21    498    272
   ---------------------------------------------------------------------------

   total number of primitive shells          :   88
   total number of contracted shells         :  120
   total number of cartesian basis functions :  291
   total number of SCF-basis functions       :  272


 residuum convergence criterium   :  0.10E-04


 integral neglect threshold       :  0.11E-10
 integral storage threshold THIZE :  0.10E-04
 integral storage threshold THIME :         5

 
             FOUND RI-J FLAG !
 
  
 AUXILIARY BASIS SET information:

              we will work with the 1s 3p 5d 7f 9g ... basis set
              ...i.e. with spherical basis functions...

   type   atoms  prim   cont   basis
   ---------------------------------------------------------------------------
    o        2     70     49   def2-SV(P)   [6s4p3d1f1g|12s5p4d2f1g]
    c       10     70     49   def2-SV(P)   [6s4p3d1f1g|12s5p4d2f1g]
    s        2     77     51   def2-SV(P)   [8s4p3d1f1g|14s5p5d2f1g]
    n        2     70     49   def2-SV(P)   [6s4p3d1f1g|12s5p4d2f1g]
    h        4     16     11   def2-SV(P)   [3s1p1d|5s2p1d]
    br       1     89     58   def2-SV(P)   [8s4p3d2f1g|19s5p5d3f1g]
   ---------------------------------------------------------------------------
   total:   21   1287    890
   ---------------------------------------------------------------------------

   total number of primitive shells          :  140
   total number of contracted shells         :  282
   total number of cartesian basis functions : 1101
   total number of SCF-basis functions       :  890

 RPA SINGLET-EXCITATION-CALCULATION 
 
             FOUND DFT-FLAG !
 

 symmetry group of the molecule :   c1 

 the group has the following generators :
   c1(z)

    1 symmetry operations found

 there are 1 real representations :   a   

 maximum number of shells which are related by symmetry :  1

 IRREP of excited state :   a   
 

 determining totally symmetric integral contributions 
    - equivalent to irreducible tensor elements - 
 which can be formed within each triple of representations :

             representation triple      contributions

              a     a     a               1

    mo occupation :
   irrep   mo's   occupied
    a      272       81
 
 number of basis functions   :                    272
 number of occupied orbitals :                     81
 
  
           ------------------
           density functional
           ------------------
 PBE0 hybrid functional
 exchange:    3/4 (LDA+PBE) + 1/4 HF
 correlation: LDA (PW) + PBE

 iterations will be done with small grid
  
 spherical integration : Lebedev's spherical grid
 spherical gridsize    :                     5
    i.e. gridpoints    :                   590
 value for diffuse not defined
 radial integration    : Chebyshev 2nd kind (scaling 3)
 radial gridsize       :                     8
 integration cells     :                    21
 partition function    : becke
 partition sharpness   :                     3
  
  
           ----------------------
               RI - INFORMATION
           ----------------------

 biggest AO integral is expected to be    21.668154127

 Threshold for integral neglect (rithr2):   0.11E-10
 Threshold for integral neglect (rithr1):   0.11E-10

 Contributions to RI integral batches: 
  neglected integral batches:                  2187
  direct contribution:                            0
  memory contribution:                  5073
 Core memory available (ricore)            5000 MiB
 Core memory needed for (P|Q) and Cholesky 7 MiB
 Core memory used for integrals            244 MiB
  
 ****************************************
 Memory allocated for RIDFT 250 MiB
 ****************************************
                                            
  MOs are in ASCII format !


 reading orbital data $scfmo  from file mos
 orbital characterization : scfconv=7
 preparing numerical integration ....
          Overall gridpoints after grid construction =        122149

 Calculating ground state density on molecular grid

 Integral of ground state density: N =   161.9999975272727    



 number of non-frozen orbitals          :   272
 number of non-frozen occupied orbitals :    81



                        -------------------
                         excitation vector 
                        -------------------


 dimension of super-tensorspace: 2

          IRREP   tensor space dimension   number of roots

           a             15471                   1

 maximum number of Davidson iterations set to   50


 machine precision: 2.22D-16


 logfile sing_a    will be constructed


                       Nonorthonormal Krylov Space Iteration


 total number of roots to be determined:   1


 maximum core memory set to   500 MB,
 corresponding to      379 vectors in CAO basis


 maximum number of simultaneously treated vectors (including degeneracy):        2


 Iteration IRREP Converged      Max. Euclidean
                 roots          residual norm

    1       a        0        3.017778031652381D-02
 
    2       a        0        1.596086018679191D-02
 
    3       a        0        1.298251827477986D-02
 
    4       a        0        5.917196530395978D-02
 
    5       a        0        2.574490908490648D-02
 
    6       a        0        9.673896404448351D-03
 
    7       a        0        4.524529043162652D-03
 
    8       a        0        2.085780612731222D-03
 
    9       a        0        1.031174537128042D-03
 
   10       a        0        5.129536051831146D-04
 
   11       a        0        2.077656598896312D-04
 
   12       a        0        9.908631999955927D-05
 
   13       a        0        3.159190488433957D-05
 
   14       a        0        1.600788246077468D-05
 
   15       a        1        5.946904906845296D-06
 

 converged!


 Switching to fine grid

 preparing numerical integration ....
          Overall gridpoints after grid construction =        372410

 Calculating ground state density on molecular grid

 Integral of ground state density: N =   161.9999985621501    



 Iteration IRREP Converged      Max. Euclidean
                 roots          residual norm

   16       a        1        9.374333880791702D-06
 

 converged!

 Eigenpairs written on logfile sing_a   



 IRREP   Vector     Eigenvalue           Euclidean residual norm

  a         1    8.773874654201107D-02    9.374333880791702D-06
 




                    Selection rules for point group c1  


 Subduction with respect to c1  :

    Polar vector representation: a                           

    Axial vector representation: a                           

    Symmetric second rank tensor representation: a                           




                            Ground state


 Total energy:                           -4011.727058471000    

 Charge:

               elec          nuc         total

          -162.000000   161.000000    -1.000000


 Electric dipole moment:

               elec          nuc         total   

    x      837.593248  -831.767694     5.825554    Norm:              7.706287
    y     -485.042102   479.997329    -5.044773
    z        0.063104    -0.056189     0.006915    Norm / debye:     19.587576


 Electric quadrupole moment:

               elec          nuc         total   

   xx   -12249.001650 12056.975821  -192.025828
   yy    -2501.220865  2377.264428  -123.956437    1/3*trace:      -136.278820
   zz      -98.544214     5.690021   -92.854193
   xy     2626.315750 -2600.057874    26.257876
   xz        4.689750    -4.698081    -0.008331    Anisotropy:       98.925920
   yz        3.299051    -3.251254     0.047796



 ==============================================================================

                              I R R E P   a   

 ==============================================================================


 Excitation is electric dipole allowed

 Excitation is magnetic dipole allowed

 Excitation is electric quadrupole allowed




                         1 singlet a excitation


 Total energy:                           -4011.639319724458    

 Excitation energy:                      0.8773874654201107E-01

 Excitation energy / eV:                  2.387493791613881    

 Excitation energy / nm:                  519.3070844496661    

 Excitation energy / cm^(-1):             19256.42899538878    


 Oscillator strength:

    velocity representation:             0.4352728626480131    

    length representation:               0.4946309986664859    

    mixed representation:                0.4640025749723213    


 Rotatory strength:

    velocity representation:             0.4540206939714732E-05

    velocity rep. / 10^(-40)erg*cm^3:    0.2933192357866524    

    length representation:               0.4198957894844932E-05

    length rep. / 10^(-40)erg*cm^3:      0.2712729038940309    


 Dominant contributions:

      occ. orbital   energy / eV   virt. orbital     energy / eV   |coeff.|^2*100
       81 a              -2.09          82 a               0.44       92.3
 

 Change of electron number:

             0.000000


 Electric transition dipole moment (velocity rep.):

    x        2.707998        Norm:                  2.727914
    y       -0.329030
    z       -0.000856        Norm / debye:          6.933719


 Electric transition dipole moment (length rep.):

    x        2.885959        Norm:                  2.907974
    y       -0.357146
    z       -0.000549        Norm / debye:          7.391390


 Magnetic transition dipole moment / i:

    x        0.000001        Norm:                  0.001836
    y       -0.000004
    z       -0.001836        Norm / Bohr mag.:      0.503179


 Electric quadrupole transition moment:

   xx      -23.706809
   yy       -2.559405        1/3*trace:            -8.713621
   zz        0.125349
   xy       11.139062
   xz       -0.001762        Anisotropy:           29.722589
   yz       -0.000871
 

 Excited state no.    1 chosen for optimization


                       ----------------------
                        CPKS right-hand side 
                       ----------------------


          IRREP   tensor space dimension   number of roots

           a             15471                   1

                          ----------------
                           CPKS equations 
                          ----------------


 logfile dipl_a    will be constructed

 Switching to coarse grid

 preparing numerical integration ....
          Overall gridpoints after grid construction =        122149


                       Nonorthonormal Krylov Space Iteration


 total number of roots to be determined:   1


 maximum core memory set to   500 MB,
 corresponding to      754 vectors in CAO basis


 maximum number of simultaneously treated vectors (including degeneracy):        1


 Iteration IRREP Converged      Max. Euclidean
                 roots          residual norm

    1       a        0        1.058716318567032D-01
 
    2       a        0        4.925444023749759D-02
 
    3       a        0        2.032483589945083D-02
 
    4       a        0        8.088169620110689D-03
 
    5       a        0        3.392529786574999D-03
 
    6       a        0        9.682733686403059D-04
 
    7       a        0        3.930543101113920D-04
 
    8       a        0        1.405394735283005D-04
 
    9       a        0        5.967231211751839D-05
 
   10       a        0        1.642439238668025D-05
 
   11       a        1        6.950832722705840D-06
 

 converged!


 Switching to fine grid

 preparing numerical integration ....
          Overall gridpoints after grid construction =        372410

 Iteration IRREP Converged      Max. Euclidean
                 roots          residual norm

   12       a        0        1.585552486669533D-05
 

 NOTE: Residual norms are larger than 1.00D-05 due to mgrid option!

 Eigenpairs written on logfile dipl_a   



 IRREP   Vector     Frequency            Euclidean residual norm

  a         1    0.000000000000000D+00    1.585552486669533D-05
 

                          -------------------
                           relaxed densities 
                          -------------------


    ----------------------------------------
     S+T+V CONTRIBUTIONS TO ENERGY GRADIENT 
    ----------------------------------------

 1e-integral 1st. derivatives will be neglected if expon. factor < 0.100000E-10


    -----------------------------------------------
     TWO ELECTRON CONTRIBUTIONS TO ENERGY GRADIENT 
    -----------------------------------------------

 setting up bound for integral derivative estimation

 increment for numerical differentiation : 0.00050000

 biggest AO integral is expected to be    21.668154127
 biggest cartesian 1st derivative AO integral is expected to be    83.347447328

 biggest 1-particle AO density matrix element is expected to be    3.2086222120

 core memory to be involved in 2e-gradient :
   symmetry shell pair data              :         1
   two particle density+dens. estimates  :      8556
   derivative integrals                  :      8498
   derivative integral bound             :     21780
   totally                               :     30276


 setting up bound for integral derivative estimation

 increment for numerical differentiation : 0.00050000

 biggest AO integral is expected to be    21.668154127
 biggest cartesian 1st derivative AO integral is expected to be    83.347447328

 2e-integral 1st. derivatives will be neglected if expon. factor < 0.100000E-06
 outer boundary for 2e-integral derivative neglection is 0.161887E-08

 Integrated ground state density     :   161.9999985621484    


          ------------------------------------------------
           cartesian gradient of the energy (hartree/bohr)
          ------------------------------------------------

  ATOM      1 o           2 c           3 c           4 c           5 c 
dE/dx  0.5671633D-03 -0.1776252D-02  0.1114204D-02 -0.1255203D-02  0.9377475D-03
dE/dy -0.1070854D-03 -0.3655375D-03  0.8025587D-03  0.9176079D-03  0.5611198D-03
dE/dz -0.1758454D-03  0.5638746D-03 -0.3412506D-03  0.2599109D-03 -0.9978731D-04

  ATOM      6 c           7 c           8 s           9 c          10 n 
dE/dx -0.1760274D-02  0.1863271D-02  0.4549629D-03  0.2553379D-02 -0.9123038D-03
dE/dy -0.9984383D-04 -0.2647802D-03 -0.8195312D-04  0.7336022D-03 -0.1702956D-02
dE/dz -0.1011043D-03 -0.3004570D-03 -0.8141417D-04  0.8813390D-05 -0.6410967D-05

  ATOM     11 c          12 s          13 n          14 c          15 c 
dE/dx -0.8661470D-03  0.4674652D-03  0.8268491D-03  0.7950141D-03  0.2943163D-03
dE/dy  0.6315438D-03 -0.1308922D-03 -0.1641209D-03  0.3196450D-03 -0.6191096D-03
dE/dz -0.5024775D-05 -0.1709320D-03  0.1923586D-03 -0.6127230D-03 -0.1996043D-03

  ATOM     16 h          17 h          18 o          19 h          20 br
dE/dx -0.3778951D-04 -0.7432240D-03 -0.1733391D-02 -0.1439496D-03 -0.6076515D-03
dE/dy  0.5165341D-04  0.4458448D-03 -0.3257875D-03 -0.4440980D-03 -0.1893325D-03
dE/dz -0.1359683D-03  0.7737012D-03  0.1777342D-03  0.7730947D-04  0.4334440D-04

  ATOM     21 h 
dE/dx -0.5302066D-04
dE/dy  0.2847540D-04
dE/dz  0.1333957D-03
 
 resulting FORCE  (fx,fy,fz) = (-.148D-04,-.345D-05,-.797D-07)
 resulting MOMENT (mx,my,mz) = (0.914D-05,-.149D-04,-.497D-05)


 **********************************************************************
  |maximum component of gradient| : 0.25533792E-02  (atom  9 c )       
   gradient norm                  : 0.60308912E-02
 **********************************************************************

 exx =      -0.002131 eyy =       0.003387 ezz =      -0.001526
 eyz =      -0.000675 exz =       0.001167 exy =       0.003726


 <getgrd> : data group $grad  is missing 

   ***  cartesian gradients written onto <gradient>  ***
 
 
 
 ==============================================================================
                           electrostatic moments
 ==============================================================================

 reference point for electrostatic moments:    0.00000   0.00000   0.00000

 
              nuc           gs,e       ->  gs,tot          excit     ->  total
 ------------------------------------------------------------------------------
                          charge      
 ------------------------------------------------------------------------------
         161.000000    -162.000000      -1.000000      -0.000000      -1.000000
 
 ------------------------------------------------------------------------------
                       dipole moment  
 ------------------------------------------------------------------------------
   x    -831.767694     837.593248       5.825554      -0.935156       4.890398
   y     479.997329    -485.042102      -5.044773       0.847237      -4.197536
   z      -0.056189       0.063104       0.006915      -0.002509       0.004406
 
   | dipole moment | =     6.4448 a.u. =    16.3810 debye 
 
 ------------------------------------------------------------------------------
                     quadrupole moment
 ------------------------------------------------------------------------------
  xx   12056.975821  -12249.001650    -192.025828       1.142287    -190.883542
  yy    2377.264428   -2501.220865    -123.956437       7.331303    -116.625134
  zz       5.690021     -98.544214     -92.854193       0.109754     -92.744439
  xy   -2600.057874    2626.315750      26.257876      -8.510595      17.747281
  xz      -4.698081       4.689750      -0.008331       0.020707       0.012376
  yz      -3.251254       3.299051       0.047796      -0.015175       0.032621
 
     1/3  trace=    -133.417705
     anisotropy=      93.823466
 
 ==============================================================================
 


    ------------------------------------------------------------------------
         total  cpu-time :  5 minutes and 53 seconds
         total wall-time :  5 minutes and 53 seconds
    ------------------------------------------------------------------------

   ****  egrad : all done  ****


    2018-02-09 21:39:01.393 

$dipole from egrad
  x     4.89039776953916    y    -4.19753618074617    z     0.00440624666067    a.u.
   | dipole | =   16.3811463531  debye
/work/bdnguye2/luc_project/5_brluc/ex_geo_opt/save/numforce/KraftWerk/p083
