 operating system is UNIX !

 ridft (missouri) : TURBOMOLE V7.2 ( 21454 ) 4 Oct 2017 at 12:48:15
 Copyright (C) 2017 TURBOMOLE GmbH, Karlsruhe


    2018-02-09 21:52:32.225 



                                  r i d f t

                        DFT program with RI approximation 
                                for coulomb part 




                                                 
                                 References:     
                                                 
          TURBOMOLE:                             
              R. Ahlrichs, M. Baer, M. Haeser, H. Horn, and
              C. Koelmel
              Electronic structure calculations on workstation
              computers: the program system TURBOMOLE
              Chem. Phys. Lett. 162: 165 (1989)
          Density Functional:                              
              O. Treutler and R. Ahlrichs                      
              Efficient Molecular Numerical Integration Schemes
              J. Chem. Phys. 102: 346 (1995)                   
          Parallel Version:                                
              Performance of parallel TURBOMOLE for Density    
              Functional Calculations                          
              M. v. Arnim and R. Ahlrichs                      
              J. Comp. Chem. 19: 1746 (1998)                   
          RI-J Method:                                     
              Auxiliary Basis Sets to approximate Coulomb      
              Potentials                                       
              Chem. Phys. Lett. 240: 283 (1995)                
              K. Eichkorn, O. Treutler, H. Oehm, M. Haeser     
              and R. Ahlrichs                                  
              Chem. Phys. Lett. 242: 652 (1995)                
                                                           
              Auxiliary Basis Sets for Main Row Atoms and their
              Use to approximate Coulomb Potentials            
              K. Eichkorn, F. Weigend, O. Treutler and         
              R. Ahlrichs                                      
              Theo. Chem. Acc. 97: 119 (1997)                   
                                                           
              Accurate Coulomb-fitting basis sets for H to Rn 
              F. Weigend                                        
              Phys. Chem. Chem. Phys. 8: 1057 (2006)            
                                                           
          Multipole accelerated RI-J (MARI-J):             
              Fast evaluation of the Coulomb potential for     
              electron densities using multipole accelerated   
              resolution of identity approximation             
              M. Sierka, A. Hogekamp and R. Ahlrichs           
              J. Chem. Phys. 118: 9136 (2003)                  
          RI-JK Method:                                     
              A fully direct RI-HF algorithm: Implementation,
              optimised auxiliary basis sets, demonstration of
              accuracy and efficiency                         
              F. Weigend                                      
              Phys. Chem. Chem. Phys. 4: 4285 (2002)           
          Two-component HF and DFT with spin-orbit coupling:  
              Self-consistent treatment of spin-orbit         
              interactions with efficient Hartree-Fock and    
              density functional methods                      
              M. K. Armbruster, F. Weigend, C. van Wüllen and 
              W. Klopper                                      
              Phys. Chem. Chem. Phys. 10: 1748 (2008)         
          Relativistic all-electron 2c calculations           
              An efficient implementation of two-component    
              relativistic exact-decoupling methods for large 
              molecules                                       
              D. Peng, N. Middendorf, F. Weigend, M. Reiher   
              J. Chem. Phys. 138, 184105 (2013)               
                                         




              +--------------------------------------------------+
              |      general information about current run       |
              +--------------------------------------------------+

 
 PBE0 hybrid functional
 exchange:    3/4 (LDA+PBE) + 1/4 HF
 correlation: LDA (PW) + PBE
 A Hybrid-DFT calculation using the RI-J approximation will be carried out.
 Allocatable memory for RI due to $ricore (MB):                  5000


              +--------------------------------------------------+
              | Atomic coordinate, charge and isotop information |
              +--------------------------------------------------+

                    atomic coordinates            atom    charge  isotop
        -12.74148904    6.95993884   -0.00955810    o      8.000     0
        -10.81835013    5.62169758   -0.00693736    c      6.000     0
         -8.29714117    6.76542737   -0.01163593    c      6.000     0
         -6.10617704    5.27013467   -0.00823759    c      6.000     0
         -6.20154462    2.60477809    0.00524865    c      6.000     0
         -8.59807199    1.43640750    0.01046060    c      6.000     0
        -10.79141802    2.86672462    0.00575283    c      6.000     0
         -3.00721201    6.29248604   -0.00993201    s     16.000     0
         -2.05210017    3.10800838   -0.00536119    c      6.000     0
         -3.87264486    1.43079126    0.00100670    n      7.000     0
          0.62153387    2.60262699   -0.00308800    c      6.000     0
          1.57894675   -0.61159153    0.00655831    s     16.000     0
          2.37315260    4.34088391   -0.00535116    n      7.000     0
          4.77357285    3.38504872   -0.00400518    c      6.000     0
          4.81339105    0.45450897    0.00215311    c      6.000     0
          5.83732462   -0.21960172    1.68871060    h      1.000     0
          5.83526487   -0.23395947   -1.68179613    h      1.000     0
          6.72956162    4.59333320   -0.01327736    o      8.000     0
         -8.23482126    8.83281593   -0.01949218    h      1.000     0
        -13.97458858    1.24789225    0.00801254    br    35.000     0
         -8.69056929   -0.62592368    0.01134322    h      1.000     0
 
       center of nuclear mass  :   -5.47644135    2.94076555   -0.00025389
       center of nuclear charge:   -5.16612014    2.98039722   -0.00050789

              +--------------------------------------------------+
              |               basis set information              |
              +--------------------------------------------------+

              we will work with the 1s 3p 5d 7f 9g ... basis set
              ...i.e. with spherical basis functions...

   type   atoms  prim   cont   basis
   ---------------------------------------------------------------------------
    o        2     24     14   def2-SV(P)   [3s2p1d|7s4p1d]
    c       10     24     14   def2-SV(P)   [3s2p1d|7s4p1d]
    s        2     36     18   def2-SV(P)   [4s3p1d|10s7p1d]
    n        2     24     14   def2-SV(P)   [3s2p1d|7s4p1d]
    h        4      4      2   def2-SV(P)   [2s|4s]
    br       1     74     32   def2-SV(P)   [5s4p3d|14s10p6d]
   ---------------------------------------------------------------------------
   total:   21    498    272
   ---------------------------------------------------------------------------

   total number of primitive shells          :   88
   total number of contracted shells         :  120
   total number of cartesian basis functions :  291
   total number of SCF-basis functions       :  272


 integral neglect threshold       :  0.11E-10
 integral storage threshold THIZE :  0.10E-04
 integral storage threshold THIME :         5

 RI-J AUXILIARY BASIS SET information:

              we will work with the 1s 3p 5d 7f 9g ... basis set
              ...i.e. with spherical basis functions...

   type   atoms  prim   cont   basis
   ---------------------------------------------------------------------------
    o        2     70     49   def2-SV(P)   [6s4p3d1f1g|12s5p4d2f1g]
    c       10     70     49   def2-SV(P)   [6s4p3d1f1g|12s5p4d2f1g]
    s        2     77     51   def2-SV(P)   [8s4p3d1f1g|14s5p5d2f1g]
    n        2     70     49   def2-SV(P)   [6s4p3d1f1g|12s5p4d2f1g]
    h        4     16     11   def2-SV(P)   [3s1p1d|5s2p1d]
    br       1     89     58   def2-SV(P)   [8s4p3d2f1g|19s5p5d3f1g]
   ---------------------------------------------------------------------------
   total:   21   1287    890
   ---------------------------------------------------------------------------

   total number of primitive shells          :  140
   total number of contracted shells         :  282
   total number of cartesian basis functions : 1101
   total number of SCF-basis functions       :  890


 symmetry group of the molecule :   c1 

 the group has the following generators :
   c1(z)

    1 symmetry operations found

 there are 1 real representations :   a   

 maximum number of shells which are related by symmetry :  1


    mo occupation :
   irrep   mo's   occupied
    a      272       81
 
 number of basis functions   :                    272
 number of occupied orbitals :                     81
 
  
           ------------------
           density functional
           ------------------
 PBE0 hybrid functional
 exchange:    3/4 (LDA+PBE) + 1/4 HF
 correlation: LDA (PW) + PBE

 iterations will be done with small grid
  
 spherical integration : Lebedev's spherical grid
 spherical gridsize    :                     5
    i.e. gridpoints    :                   590
 value for diffuse not defined
 radial integration    : Chebyshev 2nd kind (scaling 3)
 radial gridsize       :                     8
 integration cells     :                    21
 partition function    : becke
 partition sharpness   :                     3
  

 biggest AO integral is expected to be    21.668154127
  
           ------------------------
               RI-J - INFORMATION
           ------------------------
 Contributions to RI integral batches: 
  neglected integral batches:                  2344
  direct contribution:                            0
  memory contribution:                  4916
 Memory core needed for (P|Q) and Cholesky      7 MByte
 Memory core minimum needed except of (P|Q)     1 MByte
 Total minimum memory core needed (sum)         7 MByte
  
 ****************************************
 Memory allocated for RI-J   243 MByte
 ****************************************
                                            

          ------------------------
          nuclear repulsion energy  :   1647.04028020    
          ------------------------


         -----------------
         -S,T+V- integrals
         -----------------

 1e-integrals will be neglected if expon. factor < 0.114844E-11
 
   Difference densities algorithm switched on.
   The maximal number of linear combinations of
   difference densities is                    20 .

 DIIS switched on: error vector is FDS-SDF
 Max. Iterations for DIIS is     :   4
 DIIS matrix (see manual) 
    Scaling factor of diagonals  :  1.200
    threshold for scaling factor :  0.000

 scf convergence criterion : increment of total energy < .1000000D-06
                  and increment of one-electron energy < .1000000D-03

  MOs are in ASCII format !


 automatic virtual orbital shift switched on 
      shift if e(lumo)-e(homo) < 0.10000000    


 reading orbital data $scfmo  from file mos
 orbital characterization : scfconv=7

 dump of DSCF restart information has been disabled !


 Starting SCF iterations

          Overall gridpoints after grid construction =        122142

 ITERATION  ENERGY          1e-ENERGY        2e-ENERGY     NORM[dD(SAO)]  TOL
   1  -4011.7268857533    -8854.5209463     3195.7537804    0.000D+00 0.115D-10
                            Exc = -172.719212745     Coul =  3424.12993282    
                            exK = -55.6569396778    
                              N = 161.99999631    
                            current damping = 0.700
 
          max. resid. norm for Fia-block=  2.140D-03 for orbital      1a         
          max. resid. fock norm         =  4.644D-03 for orbital    196a         

 ITERATION  ENERGY          1e-ENERGY        2e-ENERGY     NORM[dD(SAO)]  TOL
   2  -4011.7269187444    -8854.5203662     3195.7531672    0.208D-01 0.726D-11
                            Exc = -172.719854831      Eck =  3368.47302206    
                              N = 161.99999644    
                            current damping = 0.650
 
          Norm of current diis error: 0.59298E-02
          max. resid. norm for Fia-block=  8.811D-04 for orbital      1a         
          max. resid. fock norm         =  1.913D-03 for orbital    196a         

 ITERATION  ENERGY          1e-ENERGY        2e-ENERGY     NORM[dD(SAO)]  TOL
   3  -4011.7269247067    -8854.5244893     3195.7572844    0.534D-02 0.565D-11
                            Exc = -172.719106993      Eck =  3368.47639142    
                              N = 161.99999650    
                            current damping = 0.600
 
          Norm of current diis error: 0.42699E-02
          max. resid. norm for Fia-block=  3.471D-04 for orbital      1a         
          max. resid. fock norm         =  7.802D-04 for orbital    196a         

 ITERATION  ENERGY          1e-ENERGY        2e-ENERGY     NORM[dD(SAO)]  TOL
   4  -4011.7269274977    -8854.5208166     3195.7536089    0.184D-02 0.520D-11
                            Exc = -172.719566102      Eck =  3368.47317500    
                              N = 161.99999651    
                            current damping = 0.650
 
          Norm of current diis error: 0.14802E-02
          max. resid. norm for Fia-block=  1.327D-04 for orbital     81a         
          max. resid. fock norm         =  3.164D-04 for orbital    196a         

 ITERATION  ENERGY          1e-ENERGY        2e-ENERGY     NORM[dD(SAO)]  TOL
   5  -4011.7269278288    -8854.5222818     3195.7550738    0.122D-02 0.501D-11
                            Exc = -172.719492634      Eck =  3368.47456639    
                              N = 161.99999654    
                            current damping = 0.700
 
          Norm of current diis error: 0.87169E-03
          max. resid. norm for Fia-block=  5.636D-05 for orbital     81a         
          max. resid. fock norm         =  1.470D-04 for orbital    258a         
          mo-orthogonalization: Cholesky decomposition

 ITERATION  ENERGY          1e-ENERGY        2e-ENERGY     NORM[dD(SAO)]  TOL
   6  -4011.7269282268    -8854.5221108     3195.7549024    0.329D-03 0.487D-11
                            Exc = -172.719500074      Eck =  3368.47440248    
                              N = 161.99999655    
                            current damping = 0.750
 
          Norm of current diis error: 0.23082E-03
          max. resid. norm for Fia-block=  2.110D-05 for orbital      1a         
          max. resid. fock norm         =  4.663D-05 for orbital    196a         

 ENERGY CONVERGED !

          Overall gridpoints after grid construction =        372413

 ITERATION  ENERGY          1e-ENERGY        2e-ENERGY     NORM[dD(SAO)]  TOL
   7  -4011.7269312157    -8854.5218823     3195.7546708    0.120D-03 0.475D-11
                            Exc = -172.719508013      Eck =  3368.47417886    
                              N = 161.99999859    
                            current damping = 0.600
 
          Norm of current diis error: 0.12558E-03
          max. resid. norm for Fia-block=  9.169D-06 for orbital     72a         
          max. resid. fock norm         =  2.069D-05 for orbital    196a         

 End of SCF iterations

   convergence criteria satisfied after     7 iterations


                  ------------------------------------------ 
                 |  total energy      =  -4011.72693121574  |
                  ------------------------------------------ 
                 :  kinetic energy    =   4002.29273779435  :
                 :  potential energy  =  -8014.01966901009  :
                 :  virial theorem    =      1.99764834607  :
                 :  wavefunction norm =      1.00000000000  :
                  .......................................... 


 <geterg> : there is no data group $energy 


 orbitals $scfmo  will be written to file mos

    irrep                 77a         78a         79a         80a         81a   
 eigenvalues H         -0.17364    -0.16425    -0.12763    -0.11940    -0.07656
            eV          -4.7251     -4.4694     -3.4730     -3.2491     -2.0833
 occupation              2.0000      2.0000      2.0000      2.0000      2.0000 

    irrep                 82a         83a         84a         85a         86a   
 eigenvalues H          0.01629     0.10573     0.11754     0.12759     0.13243
            eV           0.4433      2.8770      3.1984      3.4720      3.6037
 
 
 
 
 ==============================================================================
                           electrostatic moments
 ==============================================================================

 reference point for electrostatic moments:    0.00000   0.00000   0.00000

 
              nuc           elec       ->  total
 ------------------------------------------------------------------------------
                          charge      
 ------------------------------------------------------------------------------
         161.000000    -162.000000      -1.000000
 
 ------------------------------------------------------------------------------
                       dipole moment  
 ------------------------------------------------------------------------------
   x    -831.745343     837.563228       5.817884
   y     479.843952    -484.888802      -5.044850
   z      -0.081770       0.088737       0.006967
 
   | dipole moment | =     7.7005 a.u. =    19.5728 debye 
 
 ------------------------------------------------------------------------------
                     quadrupole moment
 ------------------------------------------------------------------------------
  xx   12051.980677  -12243.916970    -191.936293
  yy    2376.957566   -2500.919547    -123.961981
  zz       5.690435     -98.543779     -92.853345
  xy   -2597.256498    2623.583660      26.327162
  xz      -2.800497       2.818808       0.018311
  yz      -2.962769       3.018803       0.056034
 
     1/3  trace=    -136.250540
     anisotropy=      98.905062
 
 ==============================================================================
 


    ------------------------------------------------------------------------
         total  cpu-time :  57.98 seconds
         total wall-time :  57.99 seconds
    ------------------------------------------------------------------------

   ****  ridft : all done  ****


    2018-02-09 21:53:30.207 


 egrad (missouri) : TURBOMOLE V7.2 ( 21454 ) 4 Oct 2017 at 12:24:43
 Copyright (C) 2017 TURBOMOLE GmbH, Karlsruhe


    2018-02-09 21:53:30.217 




                               e g r a d

                             TURBOMOLE GmbH


             integral direct evaluation of excited state
                     and polarizability gradients
                 and first-order nonadiabatic couplings



          references (see also programs escf, dscf and ridft) 

          review 
          F. Furche and D. Rappoport,  
          "Density functional methods for excited states: 
          equilibrium structure and electronic spectra",
          ch. III of "Computational Photochemistry", ed. by 
          M. Olivucci, vol. 16 of "Theoretical and Computational 
          Chemistry", Elsevier, Amsterdam, 2005.

          nonorthonormal Krylov space methods 
          F. Furche, B. T. Krull, B. D. Nguyen, J. Kwon, 
          J. Chem. Phys. 144 (2016), 174105.

          RI-J method 
          D. Rappoport and F. Furche, 
          J. Chem. Phys. 122 (2005), 064105.

          Lagrangian method, implementation, benchmarks 
          F. Furche and R. Ahlrichs,
          J. Chem. Phys. 117 (2002), 7433;
          J. Chem. Phys. 121 (2004), 12772 (E).

          Polarizability derivatives, Raman intensities 
          D. Rappoport and F. Furche, 
          J. Chem. Phys. 126 (2007), 201104.

          First-order nonadiabatic couplings 
          R. Send and F. Furche, 
          J. Chem. Phys. 132 (2010), 044107.
                                     




              +--------------------------------------------------+
              | Atomic coordinate, charge and isotop information |
              +--------------------------------------------------+

                    atomic coordinates            atom    charge  isotop
        -12.74148904    6.95993884   -0.00955810    o      8.000     0
        -10.81835013    5.62169758   -0.00693736    c      6.000     0
         -8.29714117    6.76542737   -0.01163593    c      6.000     0
         -6.10617704    5.27013467   -0.00823759    c      6.000     0
         -6.20154462    2.60477809    0.00524865    c      6.000     0
         -8.59807199    1.43640750    0.01046060    c      6.000     0
        -10.79141802    2.86672462    0.00575283    c      6.000     0
         -3.00721201    6.29248604   -0.00993201    s     16.000     0
         -2.05210017    3.10800838   -0.00536119    c      6.000     0
         -3.87264486    1.43079126    0.00100670    n      7.000     0
          0.62153387    2.60262699   -0.00308800    c      6.000     0
          1.57894675   -0.61159153    0.00655831    s     16.000     0
          2.37315260    4.34088391   -0.00535116    n      7.000     0
          4.77357285    3.38504872   -0.00400518    c      6.000     0
          4.81339105    0.45450897    0.00215311    c      6.000     0
          5.83732462   -0.21960172    1.68871060    h      1.000     0
          5.83526487   -0.23395947   -1.68179613    h      1.000     0
          6.72956162    4.59333320   -0.01327736    o      8.000     0
         -8.23482126    8.83281593   -0.01949218    h      1.000     0
        -13.97458858    1.24789225    0.00801254    br    35.000     0
         -8.69056929   -0.62592368    0.01134322    h      1.000     0
 
       center of nuclear mass  :   -5.47644135    2.94076555   -0.00025389
       center of nuclear charge:   -5.16612014    2.98039722   -0.00050789

              +--------------------------------------------------+
              |               basis set information              |
              +--------------------------------------------------+

              we will work with the 1s 3p 5d 7f 9g ... basis set
              ...i.e. with spherical basis functions...

   type   atoms  prim   cont   basis
   ---------------------------------------------------------------------------
    o        2     24     14   def2-SV(P)   [3s2p1d|7s4p1d]
    c       10     24     14   def2-SV(P)   [3s2p1d|7s4p1d]
    s        2     36     18   def2-SV(P)   [4s3p1d|10s7p1d]
    n        2     24     14   def2-SV(P)   [3s2p1d|7s4p1d]
    h        4      4      2   def2-SV(P)   [2s|4s]
    br       1     74     32   def2-SV(P)   [5s4p3d|14s10p6d]
   ---------------------------------------------------------------------------
   total:   21    498    272
   ---------------------------------------------------------------------------

   total number of primitive shells          :   88
   total number of contracted shells         :  120
   total number of cartesian basis functions :  291
   total number of SCF-basis functions       :  272


 residuum convergence criterium   :  0.10E-04


 integral neglect threshold       :  0.11E-10
 integral storage threshold THIZE :  0.10E-04
 integral storage threshold THIME :         5

 
             FOUND RI-J FLAG !
 
  
 AUXILIARY BASIS SET information:

              we will work with the 1s 3p 5d 7f 9g ... basis set
              ...i.e. with spherical basis functions...

   type   atoms  prim   cont   basis
   ---------------------------------------------------------------------------
    o        2     70     49   def2-SV(P)   [6s4p3d1f1g|12s5p4d2f1g]
    c       10     70     49   def2-SV(P)   [6s4p3d1f1g|12s5p4d2f1g]
    s        2     77     51   def2-SV(P)   [8s4p3d1f1g|14s5p5d2f1g]
    n        2     70     49   def2-SV(P)   [6s4p3d1f1g|12s5p4d2f1g]
    h        4     16     11   def2-SV(P)   [3s1p1d|5s2p1d]
    br       1     89     58   def2-SV(P)   [8s4p3d2f1g|19s5p5d3f1g]
   ---------------------------------------------------------------------------
   total:   21   1287    890
   ---------------------------------------------------------------------------

   total number of primitive shells          :  140
   total number of contracted shells         :  282
   total number of cartesian basis functions : 1101
   total number of SCF-basis functions       :  890

 RPA SINGLET-EXCITATION-CALCULATION 
 
             FOUND DFT-FLAG !
 

 symmetry group of the molecule :   c1 

 the group has the following generators :
   c1(z)

    1 symmetry operations found

 there are 1 real representations :   a   

 maximum number of shells which are related by symmetry :  1

 IRREP of excited state :   a   
 

 determining totally symmetric integral contributions 
    - equivalent to irreducible tensor elements - 
 which can be formed within each triple of representations :

             representation triple      contributions

              a     a     a               1

    mo occupation :
   irrep   mo's   occupied
    a      272       81
 
 number of basis functions   :                    272
 number of occupied orbitals :                     81
 
  
           ------------------
           density functional
           ------------------
 PBE0 hybrid functional
 exchange:    3/4 (LDA+PBE) + 1/4 HF
 correlation: LDA (PW) + PBE

 iterations will be done with small grid
  
 spherical integration : Lebedev's spherical grid
 spherical gridsize    :                     5
    i.e. gridpoints    :                   590
 value for diffuse not defined
 radial integration    : Chebyshev 2nd kind (scaling 3)
 radial gridsize       :                     8
 integration cells     :                    21
 partition function    : becke
 partition sharpness   :                     3
  
  
           ----------------------
               RI - INFORMATION
           ----------------------

 biggest AO integral is expected to be    21.668154127

 Threshold for integral neglect (rithr2):   0.11E-10
 Threshold for integral neglect (rithr1):   0.11E-10

 Contributions to RI integral batches: 
  neglected integral batches:                  2187
  direct contribution:                            0
  memory contribution:                  5073
 Core memory available (ricore)            5000 MiB
 Core memory needed for (P|Q) and Cholesky 7 MiB
 Core memory used for integrals            244 MiB
  
 ****************************************
 Memory allocated for RIDFT 250 MiB
 ****************************************
                                            
  MOs are in ASCII format !


 reading orbital data $scfmo  from file mos
 orbital characterization : scfconv=7
 preparing numerical integration ....
          Overall gridpoints after grid construction =        122142

 Calculating ground state density on molecular grid

 Integral of ground state density: N =   161.9999965518687    



 number of non-frozen orbitals          :   272
 number of non-frozen occupied orbitals :    81



                        -------------------
                         excitation vector 
                        -------------------


 dimension of super-tensorspace: 2

          IRREP   tensor space dimension   number of roots

           a             15471                   1

 maximum number of Davidson iterations set to   50


 machine precision: 2.22D-16


 logfile sing_a    will be constructed


                       Nonorthonormal Krylov Space Iteration


 total number of roots to be determined:   1


 maximum core memory set to   500 MB,
 corresponding to      379 vectors in CAO basis


 maximum number of simultaneously treated vectors (including degeneracy):        2


 Iteration IRREP Converged      Max. Euclidean
                 roots          residual norm

    1       a        0        3.021768765784279D-02
 
    2       a        0        1.613196515545804D-02
 
    3       a        0        1.608161749365616D-02
 
    4       a        0        5.125110939326630D-02
 
    5       a        0        2.367248573809528D-02
 
    6       a        0        8.880512059309292D-03
 
    7       a        0        4.120566648091544D-03
 
    8       a        0        1.993953645594869D-03
 
    9       a        0        9.567631351964299D-04
 
   10       a        0        4.736172616033428D-04
 
   11       a        0        1.860371486984746D-04
 
   12       a        0        8.709550281017836D-05
 
   13       a        0        2.766759781714145D-05
 
   14       a        0        1.440401321414531D-05
 
   15       a        1        5.467578811350624D-06
 

 converged!


 Switching to fine grid

 preparing numerical integration ....
          Overall gridpoints after grid construction =        372413

 Calculating ground state density on molecular grid

 Integral of ground state density: N =   161.9999985925576    



 Iteration IRREP Converged      Max. Euclidean
                 roots          residual norm

   16       a        1        9.009211031222473D-06
 

 converged!

 Eigenpairs written on logfile sing_a   



 IRREP   Vector     Eigenvalue           Euclidean residual norm

  a         1    8.763940556198350D-02    9.009211031222473D-06
 




                    Selection rules for point group c1  


 Subduction with respect to c1  :

    Polar vector representation: a                           

    Axial vector representation: a                           

    Symmetric second rank tensor representation: a                           




                            Ground state


 Total energy:                           -4011.726931216000    

 Charge:

               elec          nuc         total

          -162.000000   161.000000    -1.000000


 Electric dipole moment:

               elec          nuc         total   

    x      837.563228  -831.745343     5.817884    Norm:              7.700542
    y     -484.888802   479.843952    -5.044850
    z        0.088737    -0.081770     0.006967    Norm / debye:     19.572973


 Electric quadrupole moment:

               elec          nuc         total   

   xx   -12243.916970 12051.980677  -191.936293
   yy    -2500.919547  2376.957566  -123.961981    1/3*trace:      -136.250540
   zz      -98.543779     5.690435   -92.853345
   xy     2623.583660 -2597.256498    26.327162
   xz        2.818808    -2.800497     0.018311    Anisotropy:       98.905062
   yz        3.018803    -2.962769     0.056034



 ==============================================================================

                              I R R E P   a   

 ==============================================================================


 Excitation is electric dipole allowed

 Excitation is magnetic dipole allowed

 Excitation is electric quadrupole allowed




                         1 singlet a excitation


 Total energy:                           -4011.639291810438    

 Excitation energy:                      0.8763940556198350E-01

 Excitation energy / eV:                  2.384790584850434    

 Excitation energy / nm:                  519.8957291851442    

 Excitation energy / cm^(-1):             19234.62617048386    


 Oscillator strength:

    velocity representation:             0.4328093450069228    

    length representation:               0.4914992919282299    

    mixed representation:                0.4612205615556438    


 Rotatory strength:

    velocity representation:            -0.2834129100609402E-05

    velocity rep. / 10^(-40)erg*cm^3:   -0.1830983902164809    

    length representation:              -0.2660079394689526E-05

    length rep. / 10^(-40)erg*cm^3:     -0.1718539409199655    


 Dominant contributions:

      occ. orbital   energy / eV   virt. orbital     energy / eV   |coeff.|^2*100
       81 a              -2.08          82 a               0.44       92.1
 

 Change of electron number:

            -0.000000


 Electric transition dipole moment (velocity rep.):

    x       -2.702140        Norm:                  2.721725
    y        0.325925
    z        0.000399        Norm / debye:          6.917987


 Electric transition dipole moment (length rep.):

    x       -2.878736        Norm:                  2.900396
    y        0.353806
    z        0.000621        Norm / debye:          7.372128


 Magnetic transition dipole moment / i:

    x        0.000001        Norm:                  0.001835
    y        0.000000
    z        0.001835        Norm / Bohr mag.:      0.502933


 Electric quadrupole transition moment:

   xx       23.656776
   yy        2.537466        1/3*trace:             8.689558
   zz       -0.125568
   xy      -11.094656
   xz        0.003009        Anisotropy:           29.641739
   yz       -0.001320
 

 Excited state no.    1 chosen for optimization


                       ----------------------
                        CPKS right-hand side 
                       ----------------------


          IRREP   tensor space dimension   number of roots

           a             15471                   1

                          ----------------
                           CPKS equations 
                          ----------------


 logfile dipl_a    will be constructed

 Switching to coarse grid

 preparing numerical integration ....
          Overall gridpoints after grid construction =        122142


                       Nonorthonormal Krylov Space Iteration


 total number of roots to be determined:   1


 maximum core memory set to   500 MB,
 corresponding to      754 vectors in CAO basis


 maximum number of simultaneously treated vectors (including degeneracy):        1


 Iteration IRREP Converged      Max. Euclidean
                 roots          residual norm

    1       a        0        1.059112952394828D-01
 
    2       a        0        4.919363245787468D-02
 
    3       a        0        2.026293106748389D-02
 
    4       a        0        8.047328567051672D-03
 
    5       a        0        3.387200450385042D-03
 
    6       a        0        9.661252427273781D-04
 
    7       a        0        3.922455240010327D-04
 
    8       a        0        1.403707517104722D-04
 
    9       a        0        5.968361596295652D-05
 
   10       a        0        1.639320804812216D-05
 
   11       a        1        6.903018140648051D-06
 

 converged!


 Switching to fine grid

 preparing numerical integration ....
          Overall gridpoints after grid construction =        372413

 Iteration IRREP Converged      Max. Euclidean
                 roots          residual norm

   12       a        0        1.589528004797807D-05
 

 NOTE: Residual norms are larger than 1.00D-05 due to mgrid option!

 Eigenpairs written on logfile dipl_a   



 IRREP   Vector     Frequency            Euclidean residual norm

  a         1    0.000000000000000D+00    1.589528004797807D-05
 

                          -------------------
                           relaxed densities 
                          -------------------


    ----------------------------------------
     S+T+V CONTRIBUTIONS TO ENERGY GRADIENT 
    ----------------------------------------

 1e-integral 1st. derivatives will be neglected if expon. factor < 0.100000E-10


    -----------------------------------------------
     TWO ELECTRON CONTRIBUTIONS TO ENERGY GRADIENT 
    -----------------------------------------------

 setting up bound for integral derivative estimation

 increment for numerical differentiation : 0.00050000

 biggest AO integral is expected to be    21.668154127
 biggest cartesian 1st derivative AO integral is expected to be    83.347447328

 biggest 1-particle AO density matrix element is expected to be    3.2084921855

 core memory to be involved in 2e-gradient :
   symmetry shell pair data              :         1
   two particle density+dens. estimates  :      8556
   derivative integrals                  :      8498
   derivative integral bound             :     21780
   totally                               :     30276


 setting up bound for integral derivative estimation

 increment for numerical differentiation : 0.00050000

 biggest AO integral is expected to be    21.668154127
 biggest cartesian 1st derivative AO integral is expected to be    83.347447328

 2e-integral 1st. derivatives will be neglected if expon. factor < 0.100000E-06
 outer boundary for 2e-integral derivative neglection is 0.161900E-08

 Integrated ground state density     :   161.9999985925569    


          ------------------------------------------------
           cartesian gradient of the energy (hartree/bohr)
          ------------------------------------------------

  ATOM      1 o           2 c           3 c           4 c           5 c 
dE/dx -0.5732418D-03 -0.1201041D-02  0.1371495D-02  0.2214281D-02  0.2646434D-02
dE/dy  0.4874033D-03 -0.2852418D-03  0.1244300D-02 -0.1215138D-02 -0.2003826D-02
dE/dz  0.1047262D-03 -0.3223657D-03  0.1287578D-03 -0.4832539D-03  0.5323656D-03

  ATOM      6 c           7 c           8 s           9 c          10 n 
dE/dx  0.1160270D-02 -0.2429564D-02 -0.4383514D-03 -0.3517024D-03 -0.3614305D-02
dE/dy -0.1157930D-02 -0.8586898D-03  0.8391692D-03  0.9880648D-03  0.2970846D-03
dE/dz  0.2038026D-03  0.1498171D-03  0.2110159D-03 -0.2034452D-03 -0.2050551D-03

  ATOM     11 c          12 s          13 n          14 c          15 c 
dE/dx  0.2200035D-02  0.1175081D-02  0.2236493D-03 -0.3137512D-03 -0.1274040D-02
dE/dy  0.1726536D-02 -0.4428981D-03 -0.2175743D-02  0.7488912D-03 -0.3320639D-03
dE/dz -0.6050333D-04 -0.6246683D-05  0.1006842D-04  0.5863449D-03  0.1935549D-03

  ATOM     16 h          17 h          18 o          19 h          20 br
dE/dx -0.3527254D-03 -0.1792580D-03 -0.8292298D-03 -0.2133024D-03  0.6135652D-03
dE/dy  0.4262972D-03 -0.4200051D-04 -0.5099236D-04  0.1034175D-02  0.3013375D-03
dE/dz -0.3364938D-03 -0.8172823D-04 -0.2172897D-03 -0.1314152D-04 -0.4029341D-04

  ATOM     21 h 
dE/dx  0.1504696D-03
dE/dy  0.4678720D-03
dE/dz -0.1503557D-03
 
 resulting FORCE  (fx,fy,fz) = (-.152D-04,-.339D-05,0.281D-06)
 resulting MOMENT (mx,my,mz) = (0.708D-05,-.362D-05,-.120D-05)


 **********************************************************************
  |maximum component of gradient| : 0.36143054E-02  (atom 10 n )       
   gradient norm                  : 0.82606591E-02
 **********************************************************************

 exx =      -0.009423 eyy =       0.009839 ezz =      -0.000423
 eyz =       0.000734 exz =      -0.000278 exy =       0.002213


 <getgrd> : data group $grad  is missing 

   ***  cartesian gradients written onto <gradient>  ***
 
 
 
 ==============================================================================
                           electrostatic moments
 ==============================================================================

 reference point for electrostatic moments:    0.00000   0.00000   0.00000

 
              nuc           gs,e       ->  gs,tot          excit     ->  total
 ------------------------------------------------------------------------------
                          charge      
 ------------------------------------------------------------------------------
         161.000000    -162.000000      -1.000000      -0.000000      -1.000000
 
 ------------------------------------------------------------------------------
                       dipole moment  
 ------------------------------------------------------------------------------
   x    -831.745343     837.563228       5.817884      -0.940994       4.876891
   y     479.843952    -484.888802      -5.044850       0.854392      -4.190458
   z      -0.081770       0.088737       0.006967      -0.002205       0.004762
 
   | dipole moment | =     6.4299 a.u. =    16.3433 debye 
 
 ------------------------------------------------------------------------------
                     quadrupole moment
 ------------------------------------------------------------------------------
  xx   12051.980677  -12243.916970    -191.936293       1.086717    -190.849576
  yy    2376.957566   -2500.919547    -123.961981       7.394014    -116.567967
  zz       5.690435     -98.543779     -92.853345       0.109612     -92.743733
  xy   -2597.256498    2623.583660      26.327162      -8.578072      17.749090
  xz      -2.800497       2.818808       0.018311       0.022507       0.040818
  yz      -2.962769       3.018803       0.056034      -0.013954       0.042079
 
     1/3  trace=    -133.387092
     anisotropy=      93.809141
 
 ==============================================================================
 


    ------------------------------------------------------------------------
         total  cpu-time :  5 minutes and 50 seconds
         total wall-time :  5 minutes and 50 seconds
    ------------------------------------------------------------------------

   ****  egrad : all done  ****


    2018-02-09 21:59:20.369 

$dipole from egrad
  x     4.87689063194944    y    -4.19045830169529    z     0.00476220257536    a.u.
   | dipole | =   16.3433805156  debye
/work/bdnguye2/luc_project/5_brluc/ex_geo_opt/save/numforce/KraftWerk/p086
