 operating system is UNIX !

 ridft (missouri) : TURBOMOLE V7.2 ( 21454 ) 4 Oct 2017 at 12:48:15
 Copyright (C) 2017 TURBOMOLE GmbH, Karlsruhe


    2018-02-09 22:47:37.861 



                                  r i d f t

                        DFT program with RI approximation 
                                for coulomb part 




                                                 
                                 References:     
                                                 
          TURBOMOLE:                             
              R. Ahlrichs, M. Baer, M. Haeser, H. Horn, and
              C. Koelmel
              Electronic structure calculations on workstation
              computers: the program system TURBOMOLE
              Chem. Phys. Lett. 162: 165 (1989)
          Density Functional:                              
              O. Treutler and R. Ahlrichs                      
              Efficient Molecular Numerical Integration Schemes
              J. Chem. Phys. 102: 346 (1995)                   
          Parallel Version:                                
              Performance of parallel TURBOMOLE for Density    
              Functional Calculations                          
              M. v. Arnim and R. Ahlrichs                      
              J. Comp. Chem. 19: 1746 (1998)                   
          RI-J Method:                                     
              Auxiliary Basis Sets to approximate Coulomb      
              Potentials                                       
              Chem. Phys. Lett. 240: 283 (1995)                
              K. Eichkorn, O. Treutler, H. Oehm, M. Haeser     
              and R. Ahlrichs                                  
              Chem. Phys. Lett. 242: 652 (1995)                
                                                           
              Auxiliary Basis Sets for Main Row Atoms and their
              Use to approximate Coulomb Potentials            
              K. Eichkorn, F. Weigend, O. Treutler and         
              R. Ahlrichs                                      
              Theo. Chem. Acc. 97: 119 (1997)                   
                                                           
              Accurate Coulomb-fitting basis sets for H to Rn 
              F. Weigend                                        
              Phys. Chem. Chem. Phys. 8: 1057 (2006)            
                                                           
          Multipole accelerated RI-J (MARI-J):             
              Fast evaluation of the Coulomb potential for     
              electron densities using multipole accelerated   
              resolution of identity approximation             
              M. Sierka, A. Hogekamp and R. Ahlrichs           
              J. Chem. Phys. 118: 9136 (2003)                  
          RI-JK Method:                                     
              A fully direct RI-HF algorithm: Implementation,
              optimised auxiliary basis sets, demonstration of
              accuracy and efficiency                         
              F. Weigend                                      
              Phys. Chem. Chem. Phys. 4: 4285 (2002)           
          Two-component HF and DFT with spin-orbit coupling:  
              Self-consistent treatment of spin-orbit         
              interactions with efficient Hartree-Fock and    
              density functional methods                      
              M. K. Armbruster, F. Weigend, C. van Wüllen and 
              W. Klopper                                      
              Phys. Chem. Chem. Phys. 10: 1748 (2008)         
          Relativistic all-electron 2c calculations           
              An efficient implementation of two-component    
              relativistic exact-decoupling methods for large 
              molecules                                       
              D. Peng, N. Middendorf, F. Weigend, M. Reiher   
              J. Chem. Phys. 138, 184105 (2013)               
                                         




              +--------------------------------------------------+
              |      general information about current run       |
              +--------------------------------------------------+

 
 PBE0 hybrid functional
 exchange:    3/4 (LDA+PBE) + 1/4 HF
 correlation: LDA (PW) + PBE
 A Hybrid-DFT calculation using the RI-J approximation will be carried out.
 Allocatable memory for RI due to $ricore (MB):                  5000


              +--------------------------------------------------+
              | Atomic coordinate, charge and isotop information |
              +--------------------------------------------------+

                    atomic coordinates            atom    charge  isotop
        -12.73991388    6.96082596   -0.00939918    o      8.000     0
        -10.81339457    5.61597143   -0.00321005    c      6.000     0
         -8.30340135    6.76241262   -0.01214255    c      6.000     0
         -6.11142860    5.27193446   -0.00958081    c      6.000     0
         -6.20280744    2.60426683    0.00451131    c      6.000     0
         -8.60263268    1.44150038    0.00612497    c      6.000     0
        -10.78474083    2.86894160    0.00699274    c      6.000     0
         -3.00177962    6.29056480   -0.00807140    s     16.000     0
         -2.05121860    3.10823955   -0.00414833    c      6.000     0
         -3.86855833    1.42640989    0.00583108    n      7.000     0
          0.61457066    2.60127090   -0.00510677    c      6.000     0
          1.57346108   -0.60966353    0.00414067    s     16.000     0
          2.37269972    4.34082552   -0.00692496    n      7.000     0
          4.77001761    3.38866379   -0.00918765    c      6.000     0
          4.82049972    0.45496536    0.00497208    c      6.000     0
          5.84272806   -0.22141470    1.69170132    h      1.000     0
          5.83707786   -0.23096876   -1.68461511    h      1.000     0
          6.73496506    4.58622453   -0.01282097    o      8.000     0
         -8.23843633    8.82763345   -0.01791837    h      1.000     0
        -13.97814383    1.24834513    0.00795414    br    35.000     0
         -8.69249729   -0.62834132    0.01134322    h      1.000     0
 
       center of nuclear mass  :   -5.47711299    2.94046659   -0.00033601
       center of nuclear charge:   -5.16668991    2.98005877   -0.00058419

              +--------------------------------------------------+
              |               basis set information              |
              +--------------------------------------------------+

              we will work with the 1s 3p 5d 7f 9g ... basis set
              ...i.e. with spherical basis functions...

   type   atoms  prim   cont   basis
   ---------------------------------------------------------------------------
    o        2     24     14   def2-SV(P)   [3s2p1d|7s4p1d]
    c       10     24     14   def2-SV(P)   [3s2p1d|7s4p1d]
    s        2     36     18   def2-SV(P)   [4s3p1d|10s7p1d]
    n        2     24     14   def2-SV(P)   [3s2p1d|7s4p1d]
    h        4      4      2   def2-SV(P)   [2s|4s]
    br       1     74     32   def2-SV(P)   [5s4p3d|14s10p6d]
   ---------------------------------------------------------------------------
   total:   21    498    272
   ---------------------------------------------------------------------------

   total number of primitive shells          :   88
   total number of contracted shells         :  120
   total number of cartesian basis functions :  291
   total number of SCF-basis functions       :  272


 integral neglect threshold       :  0.11E-10
 integral storage threshold THIZE :  0.10E-04
 integral storage threshold THIME :         5

 RI-J AUXILIARY BASIS SET information:

              we will work with the 1s 3p 5d 7f 9g ... basis set
              ...i.e. with spherical basis functions...

   type   atoms  prim   cont   basis
   ---------------------------------------------------------------------------
    o        2     70     49   def2-SV(P)   [6s4p3d1f1g|12s5p4d2f1g]
    c       10     70     49   def2-SV(P)   [6s4p3d1f1g|12s5p4d2f1g]
    s        2     77     51   def2-SV(P)   [8s4p3d1f1g|14s5p5d2f1g]
    n        2     70     49   def2-SV(P)   [6s4p3d1f1g|12s5p4d2f1g]
    h        4     16     11   def2-SV(P)   [3s1p1d|5s2p1d]
    br       1     89     58   def2-SV(P)   [8s4p3d2f1g|19s5p5d3f1g]
   ---------------------------------------------------------------------------
   total:   21   1287    890
   ---------------------------------------------------------------------------

   total number of primitive shells          :  140
   total number of contracted shells         :  282
   total number of cartesian basis functions : 1101
   total number of SCF-basis functions       :  890


 symmetry group of the molecule :   c1 

 the group has the following generators :
   c1(z)

    1 symmetry operations found

 there are 1 real representations :   a   

 maximum number of shells which are related by symmetry :  1


    mo occupation :
   irrep   mo's   occupied
    a      272       81
 
 number of basis functions   :                    272
 number of occupied orbitals :                     81
 
  
           ------------------
           density functional
           ------------------
 PBE0 hybrid functional
 exchange:    3/4 (LDA+PBE) + 1/4 HF
 correlation: LDA (PW) + PBE

 iterations will be done with small grid
  
 spherical integration : Lebedev's spherical grid
 spherical gridsize    :                     5
    i.e. gridpoints    :                   590
 value for diffuse not defined
 radial integration    : Chebyshev 2nd kind (scaling 3)
 radial gridsize       :                     8
 integration cells     :                    21
 partition function    : becke
 partition sharpness   :                     3
  

 biggest AO integral is expected to be    21.668154127
  
           ------------------------
               RI-J - INFORMATION
           ------------------------
 Contributions to RI integral batches: 
  neglected integral batches:                  2343
  direct contribution:                            0
  memory contribution:                  4917
 Memory core needed for (P|Q) and Cholesky      7 MByte
 Memory core minimum needed except of (P|Q)     1 MByte
 Total minimum memory core needed (sum)         7 MByte
  
 ****************************************
 Memory allocated for RI-J   243 MByte
 ****************************************
                                            

          ------------------------
          nuclear repulsion energy  :   1646.85873068    
          ------------------------


         -----------------
         -S,T+V- integrals
         -----------------

 1e-integrals will be neglected if expon. factor < 0.114844E-11
 
   Difference densities algorithm switched on.
   The maximal number of linear combinations of
   difference densities is                    20 .

 DIIS switched on: error vector is FDS-SDF
 Max. Iterations for DIIS is     :   4
 DIIS matrix (see manual) 
    Scaling factor of diagonals  :  1.200
    threshold for scaling factor :  0.000

 scf convergence criterion : increment of total energy < .1000000D-06
                  and increment of one-electron energy < .1000000D-03

  MOs are in ASCII format !


 automatic virtual orbital shift switched on 
      shift if e(lumo)-e(homo) < 0.10000000    


 reading orbital data $scfmo  from file mos
 orbital characterization : scfconv=7

 dump of DSCF restart information has been disabled !


 Starting SCF iterations

          Overall gridpoints after grid construction =        122139

 ITERATION  ENERGY          1e-ENERGY        2e-ENERGY     NORM[dD(SAO)]  TOL
   1  -4011.7267858989    -8854.1625904     3195.5770738    0.000D+00 0.115D-10
                            Exc = -172.717882661     Coul =  3423.95131619    
                            exK = -55.6563597276    
                              N = 161.99999607    
                            current damping = 0.700
 
          max. resid. norm for Fia-block=  3.991D-03 for orbital      1a         
          max. resid. fock norm         =  7.113D-03 for orbital      1a         

 ITERATION  ENERGY          1e-ENERGY        2e-ENERGY     NORM[dD(SAO)]  TOL
   2  -4011.7268435592    -8854.1477615     3195.5621873    0.237D-01 0.726D-11
                            Exc = -172.716492948      Eck =  3368.27868020    
                              N = 161.99999602    
                            current damping = 0.650
 
          Norm of current diis error: 0.85043E-02
          max. resid. norm for Fia-block=  1.643D-03 for orbital      1a         
          max. resid. fock norm         =  2.929D-03 for orbital      1a         

 ITERATION  ENERGY          1e-ENERGY        2e-ENERGY     NORM[dD(SAO)]  TOL
   3  -4011.7268527173    -8854.1468006     3195.5612172    0.886D-02 0.569D-11
                            Exc = -172.717473958      Eck =  3368.27869111    
                              N = 161.99999595    
                            current damping = 0.500
 
          Norm of current diis error: 0.64013E-02
          max. resid. norm for Fia-block=  6.475D-04 for orbital      1a         
          max. resid. fock norm         =  1.154D-03 for orbital      1a         

 ITERATION  ENERGY          1e-ENERGY        2e-ENERGY     NORM[dD(SAO)]  TOL
   4  -4011.7268590236    -8854.1506719     3195.5650822    0.278D-02 0.523D-11
                            Exc = -172.716820709      Eck =  3368.28190290    
                              N = 161.99999597    
                            current damping = 0.550
 
          Norm of current diis error: 0.22757E-02
          max. resid. norm for Fia-block=  2.158D-04 for orbital      1a         
          max. resid. fock norm         =  3.875D-04 for orbital    197a         

 ITERATION  ENERGY          1e-ENERGY        2e-ENERGY     NORM[dD(SAO)]  TOL
   5  -4011.7268597814    -8854.1468766     3195.5612861    0.156D-02 0.505D-11
                            Exc = -172.716879660      Eck =  3368.27816578    
                              N = 161.99999595    
                            current damping = 0.600
 
          Norm of current diis error: 0.13461E-02
          max. resid. norm for Fia-block=  7.661D-05 for orbital      1a         
          max. resid. fock norm         =  1.732D-04 for orbital    222a         
          mo-orthogonalization: Cholesky decomposition

 ITERATION  ENERGY          1e-ENERGY        2e-ENERGY     NORM[dD(SAO)]  TOL
   6  -4011.7268603288    -8854.1470749     3195.5614839    0.483D-03 0.492D-11
                            Exc = -172.716862866      Eck =  3368.27834675    
                              N = 161.99999597    
                            current damping = 0.650
 
          Norm of current diis error: 0.31192E-03
          max. resid. norm for Fia-block=  2.871D-05 for orbital      1a         
          max. resid. fock norm         =  5.119D-05 for orbital      1a         

 ITERATION  ENERGY          1e-ENERGY        2e-ENERGY     NORM[dD(SAO)]  TOL
   7  -4011.7268603433    -8854.1476397     3195.5620487    0.205D-03 0.482D-11
                            Exc = -172.716879468      Eck =  3368.27892818    
                              N = 161.99999597    
                            current damping = 0.500
 
          Norm of current diis error: 0.18244E-03
          max. resid. norm for Fia-block=  1.313D-05 for orbital     68a         
          max. resid. fock norm         =  2.121D-05 for orbital    256a         

 ENERGY CONVERGED !

          Overall gridpoints after grid construction =        372394

 ITERATION  ENERGY          1e-ENERGY        2e-ENERGY     NORM[dD(SAO)]  TOL
   8  -4011.7268648906    -8854.1476685     3195.5620729    0.546D-04 0.472D-11
                            Exc = -172.716869608      Eck =  3368.27894254    
                              N = 161.99999855    
                            current damping = 0.350
 
          Norm of current diis error: 0.10492E-03
          max. resid. norm for Fia-block=  9.183D-06 for orbital     80a         
          max. resid. fock norm         =  1.412D-05 for orbital    254a         

 End of SCF iterations

   convergence criteria satisfied after     8 iterations


                  ------------------------------------------ 
                 |  total energy      =  -4011.72686489062  |
                  ------------------------------------------ 
                 :  kinetic energy    =   4002.27777885677  :
                 :  potential energy  =  -8014.00464374739  :
                 :  virial theorem    =      1.99764463376  :
                 :  wavefunction norm =      1.00000000000  :
                  .......................................... 


 <geterg> : there is no data group $energy 


 orbitals $scfmo  will be written to file mos

    irrep                 77a         78a         79a         80a         81a   
 eigenvalues H         -0.17277    -0.16414    -0.12879    -0.11928    -0.07720
            eV          -4.7014     -4.4665     -3.5045     -3.2458     -2.1007
 occupation              2.0000      2.0000      2.0000      2.0000      2.0000 

    irrep                 82a         83a         84a         85a         86a   
 eigenvalues H          0.01546     0.10589     0.11757     0.12745     0.13082
            eV           0.4206      2.8815      3.1993      3.4681      3.5598
 
 
 
 
 ==============================================================================
                           electrostatic moments
 ==============================================================================

 reference point for electrostatic moments:    0.00000   0.00000   0.00000

 
              nuc           elec       ->  total
 ------------------------------------------------------------------------------
                          charge      
 ------------------------------------------------------------------------------
         161.000000    -162.000000      -1.000000
 
 ------------------------------------------------------------------------------
                       dipole moment  
 ------------------------------------------------------------------------------
   x    -831.837076     837.634855       5.797779
   y     479.789462    -484.829962      -5.040500
   z      -0.094054       0.100369       0.006315
 
   | dipole moment | =     7.6825 a.u. =    19.5270 debye 
 
 ------------------------------------------------------------------------------
                     quadrupole moment
 ------------------------------------------------------------------------------
  xx   12055.061306  -12247.208755    -192.147448
  yy    2375.716161   -2499.660215    -123.944054
  zz       5.709410     -98.555151     -92.845741
  xy   -2597.061102    2623.359494      26.298393
  xz      -3.164280       3.171549       0.007268
  yz      -2.792380       2.850401       0.058021
 
     1/3  trace=    -136.312415
     anisotropy=      99.068891
 
 ==============================================================================
 


    ------------------------------------------------------------------------
         total  cpu-time :  1 minutes and 10 seconds
         total wall-time :  1 minutes and 10 seconds
    ------------------------------------------------------------------------

   ****  ridft : all done  ****


    2018-02-09 22:48:48.133 


 egrad (missouri) : TURBOMOLE V7.2 ( 21454 ) 4 Oct 2017 at 12:24:43
 Copyright (C) 2017 TURBOMOLE GmbH, Karlsruhe


    2018-02-09 22:48:48.155 




                               e g r a d

                             TURBOMOLE GmbH


             integral direct evaluation of excited state
                     and polarizability gradients
                 and first-order nonadiabatic couplings



          references (see also programs escf, dscf and ridft) 

          review 
          F. Furche and D. Rappoport,  
          "Density functional methods for excited states: 
          equilibrium structure and electronic spectra",
          ch. III of "Computational Photochemistry", ed. by 
          M. Olivucci, vol. 16 of "Theoretical and Computational 
          Chemistry", Elsevier, Amsterdam, 2005.

          nonorthonormal Krylov space methods 
          F. Furche, B. T. Krull, B. D. Nguyen, J. Kwon, 
          J. Chem. Phys. 144 (2016), 174105.

          RI-J method 
          D. Rappoport and F. Furche, 
          J. Chem. Phys. 122 (2005), 064105.

          Lagrangian method, implementation, benchmarks 
          F. Furche and R. Ahlrichs,
          J. Chem. Phys. 117 (2002), 7433;
          J. Chem. Phys. 121 (2004), 12772 (E).

          Polarizability derivatives, Raman intensities 
          D. Rappoport and F. Furche, 
          J. Chem. Phys. 126 (2007), 201104.

          First-order nonadiabatic couplings 
          R. Send and F. Furche, 
          J. Chem. Phys. 132 (2010), 044107.
                                     




              +--------------------------------------------------+
              | Atomic coordinate, charge and isotop information |
              +--------------------------------------------------+

                    atomic coordinates            atom    charge  isotop
        -12.73991388    6.96082596   -0.00939918    o      8.000     0
        -10.81339457    5.61597143   -0.00321005    c      6.000     0
         -8.30340135    6.76241262   -0.01214255    c      6.000     0
         -6.11142860    5.27193446   -0.00958081    c      6.000     0
         -6.20280744    2.60426683    0.00451131    c      6.000     0
         -8.60263268    1.44150038    0.00612497    c      6.000     0
        -10.78474083    2.86894160    0.00699274    c      6.000     0
         -3.00177962    6.29056480   -0.00807140    s     16.000     0
         -2.05121860    3.10823955   -0.00414833    c      6.000     0
         -3.86855833    1.42640989    0.00583108    n      7.000     0
          0.61457066    2.60127090   -0.00510677    c      6.000     0
          1.57346108   -0.60966353    0.00414067    s     16.000     0
          2.37269972    4.34082552   -0.00692496    n      7.000     0
          4.77001761    3.38866379   -0.00918765    c      6.000     0
          4.82049972    0.45496536    0.00497208    c      6.000     0
          5.84272806   -0.22141470    1.69170132    h      1.000     0
          5.83707786   -0.23096876   -1.68461511    h      1.000     0
          6.73496506    4.58622453   -0.01282097    o      8.000     0
         -8.23843633    8.82763345   -0.01791837    h      1.000     0
        -13.97814383    1.24834513    0.00795414    br    35.000     0
         -8.69249729   -0.62834132    0.01134322    h      1.000     0
 
       center of nuclear mass  :   -5.47711299    2.94046659   -0.00033601
       center of nuclear charge:   -5.16668991    2.98005877   -0.00058419

              +--------------------------------------------------+
              |               basis set information              |
              +--------------------------------------------------+

              we will work with the 1s 3p 5d 7f 9g ... basis set
              ...i.e. with spherical basis functions...

   type   atoms  prim   cont   basis
   ---------------------------------------------------------------------------
    o        2     24     14   def2-SV(P)   [3s2p1d|7s4p1d]
    c       10     24     14   def2-SV(P)   [3s2p1d|7s4p1d]
    s        2     36     18   def2-SV(P)   [4s3p1d|10s7p1d]
    n        2     24     14   def2-SV(P)   [3s2p1d|7s4p1d]
    h        4      4      2   def2-SV(P)   [2s|4s]
    br       1     74     32   def2-SV(P)   [5s4p3d|14s10p6d]
   ---------------------------------------------------------------------------
   total:   21    498    272
   ---------------------------------------------------------------------------

   total number of primitive shells          :   88
   total number of contracted shells         :  120
   total number of cartesian basis functions :  291
   total number of SCF-basis functions       :  272


 residuum convergence criterium   :  0.10E-04


 integral neglect threshold       :  0.11E-10
 integral storage threshold THIZE :  0.10E-04
 integral storage threshold THIME :         5

 
             FOUND RI-J FLAG !
 
  
 AUXILIARY BASIS SET information:

              we will work with the 1s 3p 5d 7f 9g ... basis set
              ...i.e. with spherical basis functions...

   type   atoms  prim   cont   basis
   ---------------------------------------------------------------------------
    o        2     70     49   def2-SV(P)   [6s4p3d1f1g|12s5p4d2f1g]
    c       10     70     49   def2-SV(P)   [6s4p3d1f1g|12s5p4d2f1g]
    s        2     77     51   def2-SV(P)   [8s4p3d1f1g|14s5p5d2f1g]
    n        2     70     49   def2-SV(P)   [6s4p3d1f1g|12s5p4d2f1g]
    h        4     16     11   def2-SV(P)   [3s1p1d|5s2p1d]
    br       1     89     58   def2-SV(P)   [8s4p3d2f1g|19s5p5d3f1g]
   ---------------------------------------------------------------------------
   total:   21   1287    890
   ---------------------------------------------------------------------------

   total number of primitive shells          :  140
   total number of contracted shells         :  282
   total number of cartesian basis functions : 1101
   total number of SCF-basis functions       :  890

 RPA SINGLET-EXCITATION-CALCULATION 
 
             FOUND DFT-FLAG !
 

 symmetry group of the molecule :   c1 

 the group has the following generators :
   c1(z)

    1 symmetry operations found

 there are 1 real representations :   a   

 maximum number of shells which are related by symmetry :  1

 IRREP of excited state :   a   
 

 determining totally symmetric integral contributions 
    - equivalent to irreducible tensor elements - 
 which can be formed within each triple of representations :

             representation triple      contributions

              a     a     a               1

    mo occupation :
   irrep   mo's   occupied
    a      272       81
 
 number of basis functions   :                    272
 number of occupied orbitals :                     81
 
  
           ------------------
           density functional
           ------------------
 PBE0 hybrid functional
 exchange:    3/4 (LDA+PBE) + 1/4 HF
 correlation: LDA (PW) + PBE

 iterations will be done with small grid
  
 spherical integration : Lebedev's spherical grid
 spherical gridsize    :                     5
    i.e. gridpoints    :                   590
 value for diffuse not defined
 radial integration    : Chebyshev 2nd kind (scaling 3)
 radial gridsize       :                     8
 integration cells     :                    21
 partition function    : becke
 partition sharpness   :                     3
  
  
           ----------------------
               RI - INFORMATION
           ----------------------

 biggest AO integral is expected to be    21.668154127

 Threshold for integral neglect (rithr2):   0.11E-10
 Threshold for integral neglect (rithr1):   0.11E-10

 Contributions to RI integral batches: 
  neglected integral batches:                  2187
  direct contribution:                            0
  memory contribution:                  5073
 Core memory available (ricore)            5000 MiB
 Core memory needed for (P|Q) and Cholesky 7 MiB
 Core memory used for integrals            244 MiB
  
 ****************************************
 Memory allocated for RIDFT 250 MiB
 ****************************************
                                            
  MOs are in ASCII format !


 reading orbital data $scfmo  from file mos
 orbital characterization : scfconv=7
 preparing numerical integration ....
          Overall gridpoints after grid construction =        122139

 Calculating ground state density on molecular grid

 Integral of ground state density: N =   161.9999959684302    



 number of non-frozen orbitals          :   272
 number of non-frozen occupied orbitals :    81



                        -------------------
                         excitation vector 
                        -------------------


 dimension of super-tensorspace: 2

          IRREP   tensor space dimension   number of roots

           a             15471                   1

 maximum number of Davidson iterations set to   50


 machine precision: 2.22D-16


 logfile sing_a    will be constructed


                       Nonorthonormal Krylov Space Iteration


 total number of roots to be determined:   1


 maximum core memory set to   500 MB,
 corresponding to      379 vectors in CAO basis


 maximum number of simultaneously treated vectors (including degeneracy):        2


 Iteration IRREP Converged      Max. Euclidean
                 roots          residual norm

    1       a        0        3.021435503005074D-02
 
    2       a        0        1.594925388043444D-02
 
    3       a        0        1.183583979847388D-02
 
    4       a        0        7.059848529899251D-02
 
    5       a        0        2.715920517617480D-02
 
    6       a        0        1.115990585819308D-02
 
    7       a        0        4.917733768703895D-03
 
    8       a        0        2.222405489275339D-03
 
    9       a        0        1.084308622591725D-03
 
   10       a        0        5.501884302066024D-04
 
   11       a        0        2.308592243271267D-04
 
   12       a        0        1.041740413220887D-04
 
   13       a        0        3.683358713166543D-05
 
   14       a        0        1.684976428638406D-05
 
   15       a        1        6.457322549966565D-06
 

 converged!


 Switching to fine grid

 preparing numerical integration ....
          Overall gridpoints after grid construction =        372394

 Calculating ground state density on molecular grid

 Integral of ground state density: N =   161.9999985508628    



 Iteration IRREP Converged      Max. Euclidean
                 roots          residual norm

   16       a        1        9.784814122841620D-06
 

 converged!

 Eigenpairs written on logfile sing_a   



 IRREP   Vector     Eigenvalue           Euclidean residual norm

  a         1    8.762069800140933D-02    9.784814122841620D-06
 




                    Selection rules for point group c1  


 Subduction with respect to c1  :

    Polar vector representation: a                           

    Axial vector representation: a                           

    Symmetric second rank tensor representation: a                           




                            Ground state


 Total energy:                           -4011.726864891000    

 Charge:

               elec          nuc         total

          -162.000000   161.000000    -1.000000


 Electric dipole moment:

               elec          nuc         total   

    x      837.634855  -831.837076     5.797779    Norm:              7.682508
    y     -484.829962   479.789462    -5.040500
    z        0.100369    -0.094054     0.006315    Norm / debye:     19.527135


 Electric quadrupole moment:

               elec          nuc         total   

   xx   -12247.208755 12055.061306  -192.147448
   yy    -2499.660215  2375.716161  -123.944054    1/3*trace:      -136.312415
   zz      -98.555151     5.709410   -92.845741
   xy     2623.359494 -2597.061102    26.298393
   xz        3.171549    -3.164280     0.007268    Anisotropy:       99.068891
   yz        2.850401    -2.792380     0.058021



 ==============================================================================

                              I R R E P   a   

 ==============================================================================


 Excitation is electric dipole allowed

 Excitation is magnetic dipole allowed

 Excitation is electric quadrupole allowed




                         1 singlet a excitation


 Total energy:                           -4011.639244192998    

 Excitation energy:                      0.8762069800140933E-01

 Excitation energy / eV:                  2.384281526008277    

 Excitation energy / nm:                  520.0067301366070    

 Excitation energy / cm^(-1):             19230.52033553554    


 Oscillator strength:

    velocity representation:             0.4345983296294637    

    length representation:               0.4937809144016606    

    mixed representation:                0.4632445781841283    


 Rotatory strength:

    velocity representation:            -0.3379612152440965E-05

    velocity rep. / 10^(-40)erg*cm^3:   -0.2183392226327799    

    length representation:              -0.2414745530266610E-05

    length rep. / 10^(-40)erg*cm^3:     -0.1560041916506872    


 Dominant contributions:

      occ. orbital   energy / eV   virt. orbital     energy / eV   |coeff.|^2*100
       81 a              -2.10          82 a               0.42       92.2
 

 Change of electron number:

            -0.000000


 Electric transition dipole moment (velocity rep.):

    x       -2.707322        Norm:                  2.727635
    y        0.332266
    z        0.000241        Norm / debye:          6.933010


 Electric transition dipole moment (length rep.):

    x       -2.885085        Norm:                  2.907431
    y        0.359775
    z        0.000908        Norm / debye:          7.390008


 Magnetic transition dipole moment / i:

    x        0.000001        Norm:                  0.001824
    y       -0.000000
    z        0.001824        Norm / Bohr mag.:      0.499976


 Electric quadrupole transition moment:

   xx       23.737454
   yy        2.581348        1/3*trace:             8.730355
   zz       -0.127736
   xy      -11.168729
   xz        0.004577        Anisotropy:           29.773398
   yz       -0.000056
 

 Excited state no.    1 chosen for optimization


                       ----------------------
                        CPKS right-hand side 
                       ----------------------


          IRREP   tensor space dimension   number of roots

           a             15471                   1

                          ----------------
                           CPKS equations 
                          ----------------


 logfile dipl_a    will be constructed

 Switching to coarse grid

 preparing numerical integration ....
          Overall gridpoints after grid construction =        122139


                       Nonorthonormal Krylov Space Iteration


 total number of roots to be determined:   1


 maximum core memory set to   500 MB,
 corresponding to      754 vectors in CAO basis


 maximum number of simultaneously treated vectors (including degeneracy):        1


 Iteration IRREP Converged      Max. Euclidean
                 roots          residual norm

    1       a        0        1.062295588702178D-01
 
    2       a        0        4.919934318367111D-02
 
    3       a        0        2.037293267078687D-02
 
    4       a        0        8.108798217863557D-03
 
    5       a        0        3.400436841183953D-03
 
    6       a        0        9.669780590429969D-04
 
    7       a        0        3.937853413735505D-04
 
    8       a        0        1.428663772662039D-04
 
    9       a        0        5.988667344655954D-05
 
   10       a        0        1.648344301666459D-05
 
   11       a        1        7.027697380170136D-06
 

 converged!


 Switching to fine grid

 preparing numerical integration ....
          Overall gridpoints after grid construction =        372394

 Iteration IRREP Converged      Max. Euclidean
                 roots          residual norm

   12       a        0        1.585952557152805D-05
 

 NOTE: Residual norms are larger than 1.00D-05 due to mgrid option!

 Eigenpairs written on logfile dipl_a   



 IRREP   Vector     Frequency            Euclidean residual norm

  a         1    0.000000000000000D+00    1.585952557152805D-05
 

                          -------------------
                           relaxed densities 
                          -------------------


    ----------------------------------------
     S+T+V CONTRIBUTIONS TO ENERGY GRADIENT 
    ----------------------------------------

 1e-integral 1st. derivatives will be neglected if expon. factor < 0.100000E-10


    -----------------------------------------------
     TWO ELECTRON CONTRIBUTIONS TO ENERGY GRADIENT 
    -----------------------------------------------

 setting up bound for integral derivative estimation

 increment for numerical differentiation : 0.00050000

 biggest AO integral is expected to be    21.668154127
 biggest cartesian 1st derivative AO integral is expected to be    83.347447328

 biggest 1-particle AO density matrix element is expected to be    3.2087201952

 core memory to be involved in 2e-gradient :
   symmetry shell pair data              :         1
   two particle density+dens. estimates  :      8556
   derivative integrals                  :      8498
   derivative integral bound             :     21780
   totally                               :     30276


 setting up bound for integral derivative estimation

 increment for numerical differentiation : 0.00050000

 biggest AO integral is expected to be    21.668154127
 biggest cartesian 1st derivative AO integral is expected to be    83.347447328

 2e-integral 1st. derivatives will be neglected if expon. factor < 0.100000E-06
 outer boundary for 2e-integral derivative neglection is 0.161877E-08

 Integrated ground state density     :   161.9999985508619    


          ------------------------------------------------
           cartesian gradient of the energy (hartree/bohr)
          ------------------------------------------------

  ATOM      1 o           2 c           3 c           4 c           5 c 
dE/dx -0.3116544D-02  0.3834310D-02 -0.1231091D-02 -0.1080997D-02  0.1085962D-02
dE/dy  0.2966724D-02 -0.4591103D-02  0.6247391D-03  0.5538857D-03 -0.2373953D-02
dE/dz -0.1416722D-03  0.2945883D-03 -0.1674741D-03 -0.5531832D-03  0.5614779D-03

  ATOM      6 c           7 c           8 s           9 c          10 n 
dE/dx -0.3689361D-02  0.3662462D-02  0.1850314D-02  0.1915362D-02 -0.7367654D-03
dE/dy  0.4814658D-02 -0.4873176D-03  0.4223597D-03  0.1219630D-02 -0.1215791D-02
dE/dz -0.3682683D-03  0.2201959D-03  0.3598447D-03 -0.3314396D-03  0.1061430D-03

  ATOM     11 c          12 s          13 n          14 c          15 c 
dE/dx -0.3406920D-02 -0.7512394D-03  0.2636194D-02 -0.3366956D-02  0.1933052D-02
dE/dy  0.5270568D-03 -0.1351355D-03 -0.1866967D-02  0.2721873D-02 -0.5041703D-03
dE/dz -0.2029920D-03 -0.1572771D-03  0.3651667D-03 -0.7814240D-03  0.1448858D-02

  ATOM     16 h          17 h          18 o          19 h          20 br
dE/dx -0.1695172D-03 -0.3300301D-04  0.1126512D-02  0.1181615D-03 -0.8852597D-03
dE/dy  0.1875173D-03  0.2531025D-04 -0.6409750D-03  0.3121058D-03 -0.4125115D-03
dE/dz -0.2385339D-03 -0.6274010D-03  0.1814931D-03  0.5916041D-04 -0.4935119D-04

  ATOM     21 h 
dE/dx  0.2899292D-03
dE/dy -0.2151417D-02
dE/dz  0.2190545D-04
 
 resulting FORCE  (fx,fy,fz) = (-.154D-04,-.348D-05,-.184D-06)
 resulting MOMENT (mx,my,mz) = (0.299D-05,-.118D-04,-.212D-04)


 **********************************************************************
  |maximum component of gradient| : 0.48146579E-02  (atom  6 c )       
   gradient norm                  : 0.13544922E-01
 **********************************************************************

 exx =       0.005463 eyy =       0.009034 ezz =       0.000671
 eyz =       0.000207 exz =      -0.000186 exy =       0.007841


 <getgrd> : data group $grad  is missing 

   ***  cartesian gradients written onto <gradient>  ***
 
 
 
 ==============================================================================
                           electrostatic moments
 ==============================================================================

 reference point for electrostatic moments:    0.00000   0.00000   0.00000

 
              nuc           gs,e       ->  gs,tot          excit     ->  total
 ------------------------------------------------------------------------------
                          charge      
 ------------------------------------------------------------------------------
         161.000000    -162.000000      -1.000000      -0.000000      -1.000000
 
 ------------------------------------------------------------------------------
                       dipole moment  
 ------------------------------------------------------------------------------
   x    -831.837076     837.634855       5.797779      -0.917715       4.880065
   y     479.789462    -484.829962      -5.040500       0.847032      -4.193468
   z      -0.094054       0.100369       0.006315      -0.001898       0.004417
 
   | dipole moment | =     6.4343 a.u. =    16.3544 debye 
 
 ------------------------------------------------------------------------------
                     quadrupole moment
 ------------------------------------------------------------------------------
  xx   12055.061306  -12247.208755    -192.147448       1.048349    -191.099099
  yy    2375.716161   -2499.660215    -123.944054       7.330981    -116.613073
  zz       5.709410     -98.555151     -92.845741       0.109141     -92.736601
  xy   -2597.061102    2623.359494      26.298393      -8.468894      17.829499
  xz      -3.164280       3.171549       0.007268       0.024780       0.032049
  yz      -2.792380       2.850401       0.058021      -0.012541       0.045480
 
     1/3  trace=    -133.482924
     anisotropy=      94.076564
 
 ==============================================================================
 


    ------------------------------------------------------------------------
         total  cpu-time :  5 minutes and 56 seconds
         total wall-time :  5 minutes and 56 seconds
    ------------------------------------------------------------------------

   ****  egrad : all done  ****


    2018-02-09 22:54:43.863 

$dipole from egrad
  x     4.88006460273925    y    -4.19346803665547    z     0.00441738760097    a.u.
   | dipole | =   16.3544844406  debye
/work/bdnguye2/luc_project/5_brluc/ex_geo_opt/save/numforce/KraftWerk/p094
