[Molden Format]
[Title]
                                                                                
[Atoms] AU
 o     1    8 -.12868712721915E+02 0.65490027607549E+01 0.65291428678000E-02
 c     2    6 -.10822976871194E+02 0.54339444821856E+01 0.28937585920600E-02
 c     3    6 -.83733977275527E+01 0.66947294469212E+01 0.86549093935700E-02
 c     4    6 -.61421199985430E+01 0.53617689848827E+01 0.49454082692500E-02
 c     5    6 -.61046598361556E+01 0.26385413665730E+01 -.51765280975200E-02
 c     6    6 -.84554757277009E+01 0.13293042804164E+01 -.11589755450720E-01
 c     7    6 -.10663609933565E+02 0.26584390254063E+01 -.77543628488000E-02
 s     8   16 -.30488387088945E+01 0.64647748776854E+01 0.11096646992090E-01
 c     9    6 -.19999058369438E+01 0.32877002251998E+01 -.24156558664000E-03
 n    10    7 -.38133067552988E+01 0.15805601266898E+01 -.75108589816800E-02
 c    11    6 0.60946902718514E+00 0.26863255958325E+01 -.12193752922400E-02
 s    12   16 0.14412572633089E+01 -.58038206139353E+00 -.12787887234130E-01
 n    13    7 0.24347265353616E+01 0.43419423799921E+01 0.58915380806600E-02
 c    14    6 0.47955104515372E+01 0.32669362930524E+01 0.37781677382200E-02
 c    15    6 0.47158138682036E+01 0.34094062218576E+00 -.69131022380100E-02
 h    16    1 0.57095042302630E+01 -.37808883522682E+00 0.16777766507562E+01
 h    17    1 0.57121095058559E+01 -.36584098835196E+00 -.16952441043822E+01
 o    18    8 0.67895635541955E+01 0.43866688537521E+01 0.93590089463200E-02
 br   19   35 -.83501594611033E+01 0.10258929597677E+02 0.21491640978540E-01
 h    20    1 -.84260514150748E+01 -.73858122926060E+00 -.19475410939000E-01
 h    21    1 -.12494144217982E+02 0.16944685123868E+01 -.12679927177670E-01
[GTO]
    1 0
 s    5 1.00
 0.22661767785000E+04 -.53893503921743E-02
 0.34087010191000E+03 -.40234721388960E-01
 0.77363135167000E+02 -.18008184205526E+00
 0.21479644940000E+02 -.46828857657651E+00
 0.66589433124000E+01 -.44692617160187E+00
 s    1 1.00
 0.80975975668000E+00 0.10000000000000E+01
 s    1 1.00
 0.25530772234000E+00 0.10000000000000E+01
 p    3 1.00
 0.17721504317000E+02 0.62630248763161E-01
 0.38635505440000E+01 0.33331138482352E+00
 0.10480920883000E+01 0.74148638308122E+00
 p    1 1.00
 0.27641544411000E+00 0.10000000000000E+01
 d    1 1.00
 0.12000000000000E+01 0.10000000000000E+01
 
    2 0
 s    5 1.00
 0.12384016938000E+04 0.55173650481097E-02
 0.18629004992000E+03 0.41088828555946E-01
 0.42251176346000E+02 0.18225382126490E+00
 0.11676557932000E+02 0.46828459437429E+00
 0.35930506482000E+01 0.44575817336002E+00
 s    1 1.00
 0.40245147363000E+00 0.10000000000000E+01
 s    1 1.00
 0.13090182668000E+00 0.10000000000000E+01
 p    3 1.00
 0.94680970621000E+01 0.56888332011037E-01
 0.20103545142000E+01 0.31294059336471E+00
 0.54771004707000E+00 0.76065016509135E+00
 p    1 1.00
 0.15268613795000E+00 0.10000000000000E+01
 d    1 1.00
 0.80000000000000E+00 0.10000000000000E+01
 
    3 0
 s    5 1.00
 0.12384016938000E+04 0.55173650481097E-02
 0.18629004992000E+03 0.41088828555946E-01
 0.42251176346000E+02 0.18225382126490E+00
 0.11676557932000E+02 0.46828459437429E+00
 0.35930506482000E+01 0.44575817336002E+00
 s    1 1.00
 0.40245147363000E+00 0.10000000000000E+01
 s    1 1.00
 0.13090182668000E+00 0.10000000000000E+01
 p    3 1.00
 0.94680970621000E+01 0.56888332011037E-01
 0.20103545142000E+01 0.31294059336471E+00
 0.54771004707000E+00 0.76065016509135E+00
 p    1 1.00
 0.15268613795000E+00 0.10000000000000E+01
 d    1 1.00
 0.80000000000000E+00 0.10000000000000E+01
 
    4 0
 s    5 1.00
 0.12384016938000E+04 0.55173650481097E-02
 0.18629004992000E+03 0.41088828555946E-01
 0.42251176346000E+02 0.18225382126490E+00
 0.11676557932000E+02 0.46828459437429E+00
 0.35930506482000E+01 0.44575817336002E+00
 s    1 1.00
 0.40245147363000E+00 0.10000000000000E+01
 s    1 1.00
 0.13090182668000E+00 0.10000000000000E+01
 p    3 1.00
 0.94680970621000E+01 0.56888332011037E-01
 0.20103545142000E+01 0.31294059336471E+00
 0.54771004707000E+00 0.76065016509135E+00
 p    1 1.00
 0.15268613795000E+00 0.10000000000000E+01
 d    1 1.00
 0.80000000000000E+00 0.10000000000000E+01
 
    5 0
 s    5 1.00
 0.12384016938000E+04 0.55173650481097E-02
 0.18629004992000E+03 0.41088828555946E-01
 0.42251176346000E+02 0.18225382126490E+00
 0.11676557932000E+02 0.46828459437429E+00
 0.35930506482000E+01 0.44575817336002E+00
 s    1 1.00
 0.40245147363000E+00 0.10000000000000E+01
 s    1 1.00
 0.13090182668000E+00 0.10000000000000E+01
 p    3 1.00
 0.94680970621000E+01 0.56888332011037E-01
 0.20103545142000E+01 0.31294059336471E+00
 0.54771004707000E+00 0.76065016509135E+00
 p    1 1.00
 0.15268613795000E+00 0.10000000000000E+01
 d    1 1.00
 0.80000000000000E+00 0.10000000000000E+01
 
    6 0
 s    5 1.00
 0.12384016938000E+04 0.55173650481097E-02
 0.18629004992000E+03 0.41088828555946E-01
 0.42251176346000E+02 0.18225382126490E+00
 0.11676557932000E+02 0.46828459437429E+00
 0.35930506482000E+01 0.44575817336002E+00
 s    1 1.00
 0.40245147363000E+00 0.10000000000000E+01
 s    1 1.00
 0.13090182668000E+00 0.10000000000000E+01
 p    3 1.00
 0.94680970621000E+01 0.56888332011037E-01
 0.20103545142000E+01 0.31294059336471E+00
 0.54771004707000E+00 0.76065016509135E+00
 p    1 1.00
 0.15268613795000E+00 0.10000000000000E+01
 d    1 1.00
 0.80000000000000E+00 0.10000000000000E+01
 
    7 0
 s    5 1.00
 0.12384016938000E+04 0.55173650481097E-02
 0.18629004992000E+03 0.41088828555946E-01
 0.42251176346000E+02 0.18225382126490E+00
 0.11676557932000E+02 0.46828459437429E+00
 0.35930506482000E+01 0.44575817336002E+00
 s    1 1.00
 0.40245147363000E+00 0.10000000000000E+01
 s    1 1.00
 0.13090182668000E+00 0.10000000000000E+01
 p    3 1.00
 0.94680970621000E+01 0.56888332011037E-01
 0.20103545142000E+01 0.31294059336471E+00
 0.54771004707000E+00 0.76065016509135E+00
 p    1 1.00
 0.15268613795000E+00 0.10000000000000E+01
 d    1 1.00
 0.80000000000000E+00 0.10000000000000E+01
 
    8 0
 s    5 1.00
 0.91849303010000E+04 -.54729466134731E-02
 0.13815105503000E+04 -.40954402155135E-01
 0.31387147580000E+03 -.18475828956188E+00
 0.88053870623000E+02 -.47567280643953E+00
 0.27039914905000E+02 -.43495153584169E+00
 s    3 1.00
 0.45648731303000E+02 -.91904045808942E-01
 0.49664522326000E+01 0.55698777214497E+00
 0.20116242047000E+01 0.51115468298460E+00
 s    1 1.00
 0.35661077013000E+00 0.10000000000000E+01
 s    1 1.00
 0.13507221477000E+00 0.10000000000000E+01
 p    5 1.00
 0.26198233439000E+03 -.91830546592660E-02
 0.61306894736000E+02 -.65902226525990E-01
 0.19103729887000E+02 -.24587784518735E+00
 0.66567720378000E+01 -.48231471076020E+00
 0.23959635161000E+01 -.38956314351423E+00
 p    1 1.00
 0.61776161679000E+00 0.10000000000000E+01
 p    1 1.00
 0.16993376871000E+00 0.10000000000000E+01
 d    1 1.00
 0.55000000000000E+00 0.10000000000000E+01
 
    9 0
 s    5 1.00
 0.12384016938000E+04 0.55173650481097E-02
 0.18629004992000E+03 0.41088828555946E-01
 0.42251176346000E+02 0.18225382126490E+00
 0.11676557932000E+02 0.46828459437429E+00
 0.35930506482000E+01 0.44575817336002E+00
 s    1 1.00
 0.40245147363000E+00 0.10000000000000E+01
 s    1 1.00
 0.13090182668000E+00 0.10000000000000E+01
 p    3 1.00
 0.94680970621000E+01 0.56888332011037E-01
 0.20103545142000E+01 0.31294059336471E+00
 0.54771004707000E+00 0.76065016509135E+00
 p    1 1.00
 0.15268613795000E+00 0.10000000000000E+01
 d    1 1.00
 0.80000000000000E+00 0.10000000000000E+01
 
   10 0
 s    5 1.00
 0.17128415853000E+04 -.54477995804909E-02
 0.25764812677000E+03 -.40627174632423E-01
 0.58458245853000E+02 -.18111962250584E+00
 0.16198367905000E+02 -.46843975563173E+00
 0.50052600809000E+01 -.44616846289231E+00
 s    1 1.00
 0.58731856571000E+00 0.10000000000000E+01
 s    1 1.00
 0.18764592253000E+00 0.10000000000000E+01
 p    3 1.00
 0.13571470233000E+02 -.58848116969522E-01
 0.29257372874000E+01 -.32024624762471E+00
 0.79927750754000E+00 -.75328226520436E+00
 p    1 1.00
 0.21954348034000E+00 0.10000000000000E+01
 d    1 1.00
 0.10000000000000E+01 0.10000000000000E+01
 
   11 0
 s    5 1.00
 0.12384016938000E+04 0.55173650481097E-02
 0.18629004992000E+03 0.41088828555946E-01
 0.42251176346000E+02 0.18225382126490E+00
 0.11676557932000E+02 0.46828459437429E+00
 0.35930506482000E+01 0.44575817336002E+00
 s    1 1.00
 0.40245147363000E+00 0.10000000000000E+01
 s    1 1.00
 0.13090182668000E+00 0.10000000000000E+01
 p    3 1.00
 0.94680970621000E+01 0.56888332011037E-01
 0.20103545142000E+01 0.31294059336471E+00
 0.54771004707000E+00 0.76065016509135E+00
 p    1 1.00
 0.15268613795000E+00 0.10000000000000E+01
 d    1 1.00
 0.80000000000000E+00 0.10000000000000E+01
 
   12 0
 s    5 1.00
 0.91849303010000E+04 -.54729466134731E-02
 0.13815105503000E+04 -.40954402155135E-01
 0.31387147580000E+03 -.18475828956188E+00
 0.88053870623000E+02 -.47567280643953E+00
 0.27039914905000E+02 -.43495153584169E+00
 s    3 1.00
 0.45648731303000E+02 -.91904045808942E-01
 0.49664522326000E+01 0.55698777214497E+00
 0.20116242047000E+01 0.51115468298460E+00
 s    1 1.00
 0.35661077013000E+00 0.10000000000000E+01
 s    1 1.00
 0.13507221477000E+00 0.10000000000000E+01
 p    5 1.00
 0.26198233439000E+03 -.91830546592660E-02
 0.61306894736000E+02 -.65902226525990E-01
 0.19103729887000E+02 -.24587784518735E+00
 0.66567720378000E+01 -.48231471076020E+00
 0.23959635161000E+01 -.38956314351423E+00
 p    1 1.00
 0.61776161679000E+00 0.10000000000000E+01
 p    1 1.00
 0.16993376871000E+00 0.10000000000000E+01
 d    1 1.00
 0.55000000000000E+00 0.10000000000000E+01
 
   13 0
 s    5 1.00
 0.17128415853000E+04 -.54477995804909E-02
 0.25764812677000E+03 -.40627174632423E-01
 0.58458245853000E+02 -.18111962250584E+00
 0.16198367905000E+02 -.46843975563173E+00
 0.50052600809000E+01 -.44616846289231E+00
 s    1 1.00
 0.58731856571000E+00 0.10000000000000E+01
 s    1 1.00
 0.18764592253000E+00 0.10000000000000E+01
 p    3 1.00
 0.13571470233000E+02 -.58848116969522E-01
 0.29257372874000E+01 -.32024624762471E+00
 0.79927750754000E+00 -.75328226520436E+00
 p    1 1.00
 0.21954348034000E+00 0.10000000000000E+01
 d    1 1.00
 0.10000000000000E+01 0.10000000000000E+01
 
   14 0
 s    5 1.00
 0.12384016938000E+04 0.55173650481097E-02
 0.18629004992000E+03 0.41088828555946E-01
 0.42251176346000E+02 0.18225382126490E+00
 0.11676557932000E+02 0.46828459437429E+00
 0.35930506482000E+01 0.44575817336002E+00
 s    1 1.00
 0.40245147363000E+00 0.10000000000000E+01
 s    1 1.00
 0.13090182668000E+00 0.10000000000000E+01
 p    3 1.00
 0.94680970621000E+01 0.56888332011037E-01
 0.20103545142000E+01 0.31294059336471E+00
 0.54771004707000E+00 0.76065016509135E+00
 p    1 1.00
 0.15268613795000E+00 0.10000000000000E+01
 d    1 1.00
 0.80000000000000E+00 0.10000000000000E+01
 
   15 0
 s    5 1.00
 0.12384016938000E+04 0.55173650481097E-02
 0.18629004992000E+03 0.41088828555946E-01
 0.42251176346000E+02 0.18225382126490E+00
 0.11676557932000E+02 0.46828459437429E+00
 0.35930506482000E+01 0.44575817336002E+00
 s    1 1.00
 0.40245147363000E+00 0.10000000000000E+01
 s    1 1.00
 0.13090182668000E+00 0.10000000000000E+01
 p    3 1.00
 0.94680970621000E+01 0.56888332011037E-01
 0.20103545142000E+01 0.31294059336471E+00
 0.54771004707000E+00 0.76065016509135E+00
 p    1 1.00
 0.15268613795000E+00 0.10000000000000E+01
 d    1 1.00
 0.80000000000000E+00 0.10000000000000E+01
 
   16 0
 s    3 1.00
 0.13010701000000E+02 0.33485484812989E-01
 0.19622572000000E+01 0.23472187088125E+00
 0.44453796000000E+00 0.81377028525955E+00
 s    1 1.00
 0.12194962000000E+00 0.10000000000000E+01
 
   17 0
 s    3 1.00
 0.13010701000000E+02 0.33485484812989E-01
 0.19622572000000E+01 0.23472187088125E+00
 0.44453796000000E+00 0.81377028525955E+00
 s    1 1.00
 0.12194962000000E+00 0.10000000000000E+01
 
   18 0
 s    5 1.00
 0.22661767785000E+04 -.53893503921743E-02
 0.34087010191000E+03 -.40234721388960E-01
 0.77363135167000E+02 -.18008184205526E+00
 0.21479644940000E+02 -.46828857657651E+00
 0.66589433124000E+01 -.44692617160187E+00
 s    1 1.00
 0.80975975668000E+00 0.10000000000000E+01
 s    1 1.00
 0.25530772234000E+00 0.10000000000000E+01
 p    3 1.00
 0.17721504317000E+02 0.62630248763161E-01
 0.38635505440000E+01 0.33331138482352E+00
 0.10480920883000E+01 0.74148638308122E+00
 p    1 1.00
 0.27641544411000E+00 0.10000000000000E+01
 d    1 1.00
 0.12000000000000E+01 0.10000000000000E+01
 
   19 0
 s    6 1.00
 0.11328638776000E+06 0.17059195509348E-02
 0.17009626303000E+05 0.13078822297026E-01
 0.38701842567000E+04 0.64998679261222E-01
 0.10930357227000E+04 0.22750201073526E+00
 0.35639721797000E+03 0.46609763303415E+00
 0.12312539643000E+03 0.36803755398505E+00
 s    3 1.00
 0.23674084007000E+03 -.11073269394023E+00
 0.28468661070000E+02 0.63882925336863E+00
 0.11883443722000E+02 0.43625720052379E+00
 s    3 1.00
 0.21269633312000E+02 -.21858987771447E+00
 0.36129226841000E+01 0.71268904872213E+00
 0.16626648969000E+01 0.41206713869943E+00
 s    1 1.00
 0.34823793232000E+00 0.10000000000000E+01
 s    1 1.00
 0.13019031394000E+00 0.10000000000000E+01
 p    5 1.00
 0.15602801881000E+04 0.82285346263297E-02
 0.36847859205000E+03 0.62534001825199E-01
 0.11722978849000E+03 0.25011859443502E+00
 0.42648909248000E+02 0.50824174177944E+00
 0.16087225096000E+02 0.34530946639447E+00
 p    3 1.00
 0.86352810058000E+01 0.32434615308475E+00
 0.35613665502000E+01 0.54454844134613E+00
 0.15292626609000E+01 0.23041603395739E+00
 p    1 1.00
 0.53064294848000E+00 0.10000000000000E+01
 p    1 1.00
 0.15702758965000E+00 0.10000000000000E+01
 d    4 1.00
 0.10485518642000E+03 0.26692250996810E-01
 0.30281143688000E+02 0.15856723863460E+00
 0.10651394267000E+02 0.42983618185783E+00
 0.38699456233000E+01 0.57796993288988E+00
 d    1 1.00
 0.13240876762000E+01 0.10000000000000E+01
 d    1 1.00
 0.38900000000000E+00 0.10000000000000E+01
 
   20 0
 s    3 1.00
 0.13010701000000E+02 0.33485484812989E-01
 0.19622572000000E+01 0.23472187088125E+00
 0.44453796000000E+00 0.81377028525955E+00
 s    1 1.00
 0.12194962000000E+00 0.10000000000000E+01
 
   21 0
 s    3 1.00
 0.13010701000000E+02 0.33485484812989E-01
 0.19622572000000E+01 0.23472187088125E+00
 0.44453796000000E+00 0.81377028525955E+00
 s    1 1.00
 0.12194962000000E+00 0.10000000000000E+01
 
[MO]
 Sym=     1a   
 Ene= -.48307197024918E+03
 Spin= Alpha
 Occup= 2.000000
     1 0.54686106773124E-05
     2 0.86118068237571E-04
     3 -.71760035428395E-03
     4 -.15470248383642E-04
     5 -.11720919903796E-04
     6 -.48486755482551E-07
     7 -.11333322193773E-03
     8 0.75307488799395E-04
     9 0.27379764218484E-06
    10 -.12478968117465E-05
    11 0.32469330190008E-05
    12 -.19990362072543E-05
    13 0.16150678877454E-05
    14 0.79878305273454E-08
    15 0.21394850591837E-07
    16 -.59947604463179E-05
    17 0.15520066355516E-03
    18 -.27102115145070E-02
    19 -.20173391426253E-04
    20 -.56746999959087E-04
    21 -.21849487380289E-06
    22 -.16059112728524E-02
    23 0.11912834577348E-02
    24 0.38858075186081E-05
    25 0.41094816863585E-05
    26 -.90528891571245E-05
    27 0.49434074707659E-05
    28 -.10048174336711E-04
    29 -.38804510151309E-07
    30 -.72232451603672E-07
    31 0.46423490086794E-05
    32 -.65646373968904E-04
    33 0.35512148422273E-02
    34 0.68712065293534E-05
    35 0.61631164306690E-04
    36 0.22946934616733E-06
    37 0.92520219349826E-04
    38 -.19069010318292E-02
    39 -.69787630545299E-05
    40 0.26177362102560E-04
    41 -.24299371531623E-04
    42 -.18779905709374E-05
    43 -.26900021585981E-05
    44 0.90625847926847E-08
    45 -.94332761314632E-07
    46 0.85294707519196E-05
    47 -.32774521964313E-04
    48 -.31542404793341E-02
    49 -.25810138773496E-04
    50 -.63476893386269E-04
    51 -.25353630628974E-06
    52 0.16614327146380E-02
    53 0.91215478036300E-03
    54 0.43598302654713E-05
    55 -.63744066984842E-06
    56 -.95186863933275E-05
    57 0.10156127063176E-04
    58 0.14863065814925E-05
    59 -.50085161501498E-09
    60 -.87361162616659E-07
    61 -.39332462778965E-06
    62 -.53976475515715E-04
    63 0.24362409865478E-02
    64 0.73160347332577E-05
    65 0.91926903399907E-05
    66 0.31593167722035E-07
    67 -.11584382149174E-02
    68 0.82463782628116E-03
    69 0.23744057410184E-05
    70 -.27419610117916E-05
    71 0.11568074494263E-04
    72 -.88261134824719E-05
    73 -.10460618581210E-05
    74 0.13943189120565E-08
    75 0.87272096251373E-07
    76 0.37905735935579E-06
    77 0.25202130353360E-04
    78 -.23144716279090E-02
    79 0.85109372642602E-06
    80 -.34529726039171E-05
    81 -.15916235132832E-07
    82 0.36619676255275E-04
    83 -.10999877026231E-02
    84 -.41920249414345E-05
    85 -.40054682649449E-05
    86 0.37790587198674E-06
    87 0.36275623929581E-05
    88 -.61218241216947E-06
    89 -.47404492562080E-08
    90 -.15277441022565E-07
    91 -.43858558783716E-05
    92 0.63108484361494E-05
    93 0.27756340086372E-02
    94 -.18751829977505E-05
    95 0.23785762281566E-04
    96 0.82320908711823E-07
    97 0.92997247136629E-03
    98 0.69441711975537E-03
    99 0.32389946326494E-05
   100 -.35781321488241E-05
   101 0.11989602517055E-04
   102 -.84114703682309E-05
   103 -.62189323316433E-06
   104 0.57713111300971E-08
   105 0.90326648974487E-07
   106 0.28938351317701E-05
   107 0.25731875950925E-04
   108 -.12128987663818E-03
   109 -.43483700126191E-03
   110 0.11073582398074E-04
   111 -.54566199603412E-05
   112 -.12246782678896E-07
   113 0.64996070196480E-04
   114 -.28743747830113E-04
   115 -.61286225792726E-07
   116 0.13109363793693E-03
   117 0.20371185661035E-03
   118 0.86317745343037E-06
   119 -.16322145186877E-04
   120 0.29322404462321E-05
   121 0.13389904740645E-04
   122 0.28714257782373E-05
   123 -.16034877590508E-07
   124 -.46468463654869E-07
   125 0.12690067312625E-06
   126 -.58587175444628E-05
   127 0.20249481224534E-03
   128 -.48667403580842E-05
   129 -.10061660128037E-04
   130 -.40196240927248E-07
   131 0.55020099571637E-04
   132 0.17642077250254E-03
   133 0.70025429628375E-06
   134 -.12686886766811E-05
   135 0.30920615739678E-05
   136 -.18233728972866E-05
   137 -.62870964858570E-06
   138 -.37776007774635E-08
   139 0.19608256428476E-07
   140 0.10323904583914E-05
   141 0.61179944060453E-05
   142 0.40926220993331E-03
   143 -.14751856641057E-05
   144 -.48499751064618E-05
   145 -.21695298535383E-07
   146 -.11103749382272E-03
   147 -.99342962169016E-06
   148 -.11278237994860E-06
   149 0.18019209429823E-05
   150 -.19290500013773E-05
   151 0.12712905839498E-06
   152 0.60299413544898E-06
   153 0.49979075617860E-08
   154 -.91958368394425E-08
   155 0.10382797705544E-05
   156 -.10103373850588E-04
   157 -.10456656772845E-03
   158 -.15611256919769E-05
   159 0.24046963520411E-05
   160 0.95128201705972E-08
   161 0.62667096302867E-05
   162 -.14294239640570E-03
   163 -.53716155896713E-06
   164 -.36491924476302E-06
   165 -.25664989001929E-06
   166 0.62156913478232E-06
   167 0.14232666126652E-05
   168 0.51122833019647E-08
   169 -.37055691116624E-08
   170 0.60073592929460E-07
   171 0.56072651578589E-06
   172 0.39242630289368E-06
   173 -.57893090832426E-04
   174 0.23578535865994E-06
   175 -.36946541282867E-06
   176 -.14351145129211E-08
   177 0.18157620671302E-05
   178 -.19990182950057E-05
   179 -.75617781003310E-08
   180 0.11671376066600E-05
   181 -.30639884547801E-04
   182 -.10824401192867E-06
   183 0.90287172933209E-06
   184 -.22840264459475E-05
   185 0.13811547166154E-05
   186 0.62045077773134E-06
   187 0.15256743742853E-08
   188 -.14438584181777E-07
   189 -.43933969947244E-06
   190 -.79877474181032E-05
   191 0.99309381385281E-04
   192 0.11488851519965E-06
   193 -.13280755169928E-05
   194 -.60102193393412E-08
   195 -.28720671243667E-04
   196 -.17407975468404E-04
   197 -.81621093579572E-07
   198 0.49499527376709E-06
   199 -.84353719731541E-06
   200 0.34854192354832E-06
   201 0.34128903053154E-06
   202 0.13653492244794E-08
   203 -.53066571354360E-08
   204 0.27932837182597E-06
   205 -.63969920466190E-06
   206 -.91860978720357E-05
   207 0.17042822617804E-05
   208 0.42747005151699E-07
   209 0.37749833455279E-09
   210 0.90148865159053E-05
   211 0.11058072360279E-04
   212 0.53019099870977E-07
   213 -.64729623853146E-06
   214 0.38590087731354E-06
   215 0.26139536121793E-06
   216 -.44581922548150E-06
   217 -.25324828240252E-08
   218 0.10580733257610E-09
   219 -.10546791349254E-07
   220 0.44349466098352E-06
   221 0.17897995177410E-04
   222 -.25710013382915E-08
   223 -.99825083497455E-08
   224 -.16144331140347E-09
   225 -.65063218278490E-05
   226 0.32917381194092E-05
   227 0.44748784161543E-08
   228 -.86141743059807E-07
   229 -.20838913547541E-06
   230 0.29453087853522E-06
   231 0.23627418901915E-06
   232 0.47108022222069E-09
   233 -.20466922182715E-08
   234 -.51748568995342E-06
   235 0.64616521343353E-06
   236 -.51857194631322E-06
   237 0.64638018380075E-06
   238 0.21480940497973E-06
   239 0.20023643772661E-05
   240 -.81649744511022E-05
   241 -.36753754118074E-06
   242 0.33659236278061E-07
   243 0.43479083651388E-09
   244 0.18651889862841E-05
   245 -.47948366986416E-06
   246 -.28690489518588E-08
   247 0.23946051645124E-07
   248 0.56530344021523E-07
   249 -.80476395666648E-07
   250 0.14928987515134E-06
   251 0.74757090322566E-09
   252 0.73346330121513E-09
   253 0.99498544324020E+00
   254 0.15677038732841E-01
   255 -.39137823171382E-02
   256 0.23544755787642E-02
   257 -.11245694401355E-02
   258 -.29525041319104E-06
   259 -.13969369224726E-04
   260 -.49987396463997E-07
   261 0.12929787703127E-05
   262 0.43317396041681E-04
   263 0.15514730357555E-06
   264 -.69997146472598E-05
   265 -.18955766399355E-03
   266 -.68125111998787E-06
   267 0.12029584744017E-04
   268 0.99825571573207E-04
   269 0.37658971227095E-06
   270 -.12275454476186E-06
   271 -.29708555213914E-05
   272 0.30936100661532E-05
   273 -.32068647271626E-06
   274 -.28375163145861E-08
   275 -.25898227142306E-07
   276 0.10082905543935E-05
   277 0.98783325492537E-05
   278 -.10886623103647E-04
   279 0.12072440475320E-05
   280 0.10558707212674E-07
   281 0.89094521413832E-07
   282 -.11304592898551E-04
   283 -.11348128725545E-05
   284 0.12439405771106E-04
   285 -.21400425163069E-05
   286 -.19955530703956E-07
   287 -.64628053862091E-07
   288 -.78994570820478E-04
   289 -.91185431401091E-04
   290 0.69722055048524E-04
   291 0.49948909466779E-04
 Sym=     2a   
 Ene= -.88924382066721E+02
 Spin= Alpha
 Occup= 2.000000
     1 -.75634418693457E-05
     2 -.10156268584348E-03
     3 0.10476402000799E-02
     4 0.22594816896650E-04
     5 0.86519694936133E-05
     6 0.23558180070391E-07
     7 0.43231512449338E-04
     8 -.14998161759758E-03
     9 -.54300988879666E-06
    10 -.68630094780126E-05
    11 0.56476655522394E-05
    12 0.12153439257731E-05
    13 0.53005184141147E-05
    14 0.17192561335566E-07
    15 0.23176654500861E-07
    16 0.78510093707696E-05
    17 -.35054894306556E-03
    18 0.89026821073514E-02
    19 0.37746389837140E-04
    20 0.50913815091316E-04
    21 0.24154001703291E-06
    22 0.45050888593049E-02
    23 -.17821001626696E-02
    24 -.51490599561924E-05
    25 0.34611422990501E-04
    26 0.39540462894621E-05
    27 -.38565469279963E-04
    28 0.22357438144575E-04
    29 0.10926684326505E-06
    30 0.21122975638722E-06
    31 0.32442426114608E-04
    32 -.10393386304271E-03
    33 -.13450854213632E-01
    34 -.16526253476737E-03
    35 -.16563171072388E-03
    36 -.72499657453835E-06
    37 -.28128460327679E-03
    38 0.64379702805233E-02
    39 0.23646001148943E-04
    40 -.53043508840352E-04
    41 0.69942345873237E-05
    42 0.46049274253029E-04
    43 -.92618400326355E-05
    44 -.85452035645331E-07
    45 -.15350582628694E-06
    46 0.67608682783587E-04
    47 -.54552015935813E-03
    48 0.13674848535933E-01
    49 0.77404508463886E-04
    50 0.23421574121207E-04
    51 0.13938527341119E-06
    52 -.76279362880635E-02
    53 -.24259926680343E-02
    54 -.13610179969137E-04
    55 -.18516719370979E-03
    56 0.14115328971541E-03
    57 0.44013903994377E-04
    58 -.16737385089094E-03
    59 -.82343099167741E-06
    60 0.32172447956197E-06
    61 -.22636791373802E-04
    62 0.39516999712368E-03
    63 -.97646163688736E-02
    64 -.14671266759277E-03
    65 -.87448994776586E-04
    66 -.43315804221463E-06
    67 0.78727171846967E-02
    68 -.23737923610019E-02
    69 -.37243629814250E-05
    70 0.57432539324718E-04
    71 -.64323023478102E-04
    72 0.68904841533832E-05
    73 0.25083631041934E-04
    74 0.13012188812820E-06
    75 -.28716390517240E-06
    76 -.18531020064449E-04
    77 0.88919340909799E-04
    78 0.10874362294209E-01
    79 0.82086309349345E-04
    80 0.39157862337055E-04
    81 0.21160664915255E-06
    82 0.68199634334086E-03
    83 0.47892147064724E-02
    84 0.18611067116923E-04
    85 0.11607235391133E-04
    86 0.12134939997921E-04
    87 -.23742175389053E-04
    88 0.97066054619494E-05
    89 0.47738686633441E-07
    90 0.16362735604857E-06
    91 0.22821614860386E-06
    92 0.65583738203335E-04
    93 -.82024318899522E-02
    94 -.14695743230324E-04
    95 0.41639855429954E-05
    96 0.12340794094674E-07
    97 -.30712226567985E-02
    98 -.15683391123316E-02
    99 -.77282394260453E-05
   100 0.74865279913476E-05
   101 -.13129467164670E-04
   102 0.56429391733228E-05
   103 0.17527743821307E-04
   104 0.58779831505290E-07
   105 -.66518407267483E-07
   106 0.99423802021816E+00
   107 -.21836951541892E-01
   108 0.10723375801755E-01
   109 -.49431018887587E-02
   110 -.11181164316210E-03
   111 -.19261735752537E-03
   112 -.80542452609097E-06
   113 -.39708955749193E-03
   114 -.65628602553019E-03
   115 -.27520133664824E-05
   116 -.23115629913228E-03
   117 0.52985849281189E-03
   118 0.18098145189131E-05
   119 0.60573805924317E-04
   120 -.31151731179170E-04
   121 -.29422074745147E-04
   122 0.16214875426585E-04
   123 0.14738167818311E-06
   124 0.12985149765790E-07
   125 0.23190360341792E-04
   126 0.14599654734262E-03
   127 0.43771762661039E-02
   128 -.88741656089199E-04
   129 -.37771624134362E-04
   130 -.19414000808746E-06
   131 0.62925512338480E-03
   132 -.26468036333412E-02
   133 -.95311748063874E-05
   134 0.13319181543672E-03
   135 -.20340660257562E-03
   136 0.70214787138907E-04
   137 0.11679028776126E-03
   138 0.47053176161110E-06
   139 -.11192441015583E-05
   140 0.56014576113583E-05
   141 0.21450425464021E-03
   142 -.53284544055820E-02
   143 -.28767516040788E-04
   144 0.78326282783522E-04
   145 0.27514600347985E-06
   146 0.95964146302661E-05
   147 -.67065686367207E-03
   148 -.22597303166038E-05
   149 -.44266911450875E-05
   150 0.23303374800801E-04
   151 -.18876683655713E-04
   152 -.30780463501507E-04
   153 -.11202197980545E-06
   154 0.17582849077837E-06
   155 -.42933597582529E-05
   156 0.15628440885562E-03
   157 -.20589483264704E-02
   158 0.66505650152508E-04
   159 -.18078391788344E-03
   160 -.63867180908659E-06
   161 0.24352022808432E-02
   162 0.27087401169093E-02
   163 0.11219226350484E-04
   164 0.48985138946517E-05
   165 0.66744832223840E-05
   166 -.11572997117036E-04
   167 0.64721323808056E-04
   168 0.25435235756850E-06
   169 0.11860976143885E-06
   170 0.13782654707850E-02
   171 -.40068693066783E-04
   172 -.12367004328960E-03
   173 0.18011044261286E-02
   174 -.98501036153339E-05
   175 0.21727596047471E-06
   176 -.26160542424254E-08
   177 -.55219802506971E-04
   178 -.18483165843362E-04
   179 -.88293702018830E-07
   180 -.16397160430264E-03
   181 0.96631187465851E-03
   182 0.34742559524798E-05
   183 -.61982427474063E-05
   184 0.53141328914222E-04
   185 -.46943086166815E-04
   186 -.65932453832622E-04
   187 -.20637928248055E-06
   188 0.39304360721388E-06
   189 -.96230499499117E-05
   190 0.66735219994287E-04
   191 -.24093329669992E-02
   192 -.10517681477051E-03
   193 0.76113564599898E-04
   194 0.24719724887607E-06
   195 0.14346516913184E-03
   196 0.80688590512134E-03
   197 0.31173050418983E-05
   198 -.14242978152677E-04
   199 0.27899762975553E-05
   200 0.11453001855121E-04
   201 -.35651556970948E-07
   202 -.26123514575394E-07
   203 -.32895647381390E-07
   204 -.17052760239666E-04
   205 0.16360682824733E-03
   206 0.77815638293987E-03
   207 -.86703544553850E-04
   208 0.35767608057974E-04
   209 0.65735529337995E-07
   210 -.19832278942888E-03
   211 -.32221160397802E-03
   212 -.14242642659555E-05
   213 0.16069829053407E-04
   214 -.50216741818495E-05
   215 -.11048154871558E-04
   216 -.42650825953809E-05
   217 0.13011084216663E-07
   218 0.20468610993992E-07
   219 -.47380594608735E-06
   220 0.73046434687288E-04
   221 -.10000289125745E-02
   222 0.96842429391069E-05
   223 0.66785256967228E-06
   224 -.47012495020326E-08
   225 0.28423073484941E-03
   226 -.34990799312582E-03
   227 -.94006446422160E-06
   228 -.58982149067722E-05
   229 0.19626825727513E-06
   230 0.57019466494970E-05
   231 0.10388362267052E-04
   232 0.31912835922451E-07
   233 -.12733209609307E-07
   234 0.29005271182509E-04
   235 -.20234711644542E-05
   236 0.29049775980572E-04
   237 -.19463748866318E-05
   238 -.17248925419937E-05
   239 -.11568654125611E-04
   240 0.29092956591698E-04
   241 0.90729841692497E-05
   242 -.16209613984806E-05
   243 -.52807270149880E-08
   244 -.20246521095067E-04
   245 0.39435292507719E-04
   246 0.16191088286025E-06
   247 0.17472501497372E-05
   248 -.14090085123476E-05
   249 -.33824163738953E-06
   250 -.59565592358732E-05
   251 -.21364568855974E-07
   252 -.96971862827875E-08
   253 0.77205202577124E-05
   254 -.16380917116161E-04
   255 0.12797742044896E-03
   256 -.60942770253918E-03
   257 -.19800875748905E-03
   258 -.91342400816462E-05
   259 0.16847167915716E-04
   260 0.53804736881222E-07
   261 0.32948657894381E-04
   262 -.61233697208518E-04
   263 -.19585286102552E-06
   264 -.14452311962148E-03
   265 0.28930900015724E-03