 operating system is UNIX !

 force (missouri) : TURBOMOLE V7.2 ( 21454 ) 4 Oct 2017 at 12:24:43
 Copyright (C) 2017 TURBOMOLE GmbH, Karlsruhe


    2018-03-20 22:45:07.790 



                             T U R B O M O L E   

                          a o f o r c e - program

                        using direct algorithms for

                       SCF level calculations of
                         * harmonic force constants
                         * hyperpolarizabilities
                         * IR and RAMAN intensities
                         * VCD intensities

                       DFT level calculations of
                         * harmonic force constants
                         * IR intensities
                                                   
       Stephan Boecker, Peter Deglmann, Filipp Furche and Marco Haeser
                          Quantum Chemistry Group
                          Universitaet  Karlsruhe
                                   Germany

 
 
 
 
     References :
 
       RI-J implementation:
         Peter Deglmann, Klaus May, Filipp Furche, Reinhart Ahlrichs
                 Chem. Phys. Lett. 384:103 (2004)
 
       Efficiency, technical details:
         Peter Deglmann, Filipp Furche, Reinhart Ahlrichs
                 Chem. Phys. Lett. 362:511 (2002)
 
       Search of lowest eigenvalues by iterative diagonalization:
         Peter Deglmann, Filipp Furche
                 J. Chem. Phys. 117:9535 (2002)
 
       Vibrational circular dichroism implementation:
        Kevin Reiter, Michael Kuehn, Florian Weigend
                 J. Chem. Phys. 146:054102 (2017)  
 
 


              +--------------------------------------------------+
              | Atomic coordinate, charge and isotop information |
              +--------------------------------------------------+

                    atomic coordinates            atom    charge  isotop
         -1.08589378   -2.69390623   -1.50426373    c      6.000     0
         -2.79274565   -0.58465363   -1.63423919    c      6.000     0
          1.51213342   -2.30751613   -1.78695527    c      6.000     0
          2.48405279    0.20721432   -2.11742451    c      6.000     0
          0.82332891    2.25765097   -2.24382770    c      6.000     0
         -1.84839214    1.86181861   -1.95387137    c      6.000     0
          3.17734417   -3.69780267   -0.25558931    c      6.000     0
          2.26221522   -5.55494527    1.12066952    n      7.000     0
         -0.12122258   -5.99222709    1.35835269    c      6.000     0
         -1.96430590   -4.51248811    0.23837339    c      6.000     0
         -4.68135420   -3.74243936    0.97970040    c      6.000     0
         -4.78569325   -0.96347850    0.07947981    c      6.000     0
         -5.92225759    1.02582162    1.04495945    n      7.000     0
         -5.13034784    3.30537628    0.72078263    c      6.000     0
         -2.96298760    3.88774478   -0.62285513    c      6.000     0
         -0.94194129    5.98474845   -0.41061643    c      6.000     0
          1.50993777    4.52426382   -1.04307804    c      6.000     0
          5.66617612   -2.18181866   -0.02875491    c      6.000     0
          4.82608447    0.48469943   -0.87011105    c      6.000     0
          5.41295894    2.91036625   -0.08726386    c      6.000     0
          3.82307233    4.75287128   -0.16077289    n      7.000     0
          6.41828636   -2.21911561    1.91987933    h      1.000     0
          7.15403284   -2.96073956   -1.28665224    h      1.000     0
         -6.11579009   -4.91859062   -0.00029594    h      1.000     0
         -5.03994679   -3.90295193    3.03134584    h      1.000     0
         -1.28481724    7.53489205   -1.78216636    h      1.000     0
         -0.85965424    6.84349550    1.49164792    h      1.000     0
         -6.11203928    4.86297749    1.76366950    h      1.000     0
          7.27472993    3.23242349    0.86565145    h      1.000     0
         -0.73194575   -7.49518604    2.71676109    h      1.000     0
 
       center of nuclear mass  :   -0.02937796   -0.04087048   -0.36454391
       center of nuclear charge:   -0.02589232   -0.03602353   -0.32129809

              +--------------------------------------------------+
              |               basis set information              |
              +--------------------------------------------------+

              we will work with the 1s 3p 5d 7f 9g ... basis set
              ...i.e. with spherical basis functions...

   type   atoms  prim   cont   basis
   ---------------------------------------------------------------------------
    c       18     24     14   def2-SV(P)   [3s2p1d|7s4p1d]
    n        3     24     14   def2-SV(P)   [3s2p1d|7s4p1d]
    h        9      4      2   def2-SV(P)   [2s|4s]
   ---------------------------------------------------------------------------
   total:   30    540    312
   ---------------------------------------------------------------------------

   total number of primitive shells          :   28
   total number of contracted shells         :  144
   total number of cartesian basis functions :  333
   total number of SCF-basis functions       :  312

 
             FOUND RI-J FLAG !
 

 NOTE: THIS IS A PRELIMINARY IMPLEMENTATION. THE RI APPROXIMATION IS
       PRESENTLY USED FOR CPKS CONTRIBUTIONS TO THE HESSIAN ONLY! SEE
       MANUAL FOR FURTHER DETAILS.

  
 AUXILIARY BASIS SET information:

              we will work with the 1s 3p 5d 7f 9g ... basis set
              ...i.e. with spherical basis functions...

   type   atoms  prim   cont   basis
   ---------------------------------------------------------------------------
    c       18     70     49   def2-SV(P)   [6s4p3d1f1g|12s5p4d2f1g]
    n        3     70     49   def2-SV(P)   [6s4p3d1f1g|12s5p4d2f1g]
    h        9     16     11   def2-SV(P)   [3s1p1d|5s2p1d]
   ---------------------------------------------------------------------------
   total:   30   1614   1128
   ---------------------------------------------------------------------------

   total number of primitive shells          :   56
   total number of contracted shells         :  360
   total number of cartesian basis functions : 1389
   total number of SCF-basis functions       : 1128


 symmetry group of the molecule :   c1 

 the group has the following generators :
   c1(z)

    1 symmetry operations found

 there are 1 real representations :   a   

 maximum number of shells which are related by symmetry :  1


 determining totally symmetric integral contributions 
    - equivalent to irreducible tensor elements - 
 which can be formed within each triple of representations :

             representation triple      contributions

              a     a     a               1

    mo occupation :
   irrep   mo's   occupied
    a      312       69
 
 number of basis functions   :                    312
 number of occupied orbitals :                     69
 
  MOs are in ASCII format !


 reading orbital data $scfmo  from file mos
 orbital characterization : scfconv=7
 time elapsed for calculating density matrices :   0.005 sec

 number of non-frozen orbitals          :   312
 number of non-frozen occupied orbitals :    69
 Blocking parameters 
 shells:
    index      start shell   last shell  start bf    last bf    #bf 
       1             1         128             1        237    237
       2           129         144           238        333     96
  
           ----------------------
               RI - INFORMATION
           ----------------------

 biggest AO integral is expected to be     4.152585025

 Threshold for integral neglect (rithr2):   0.75E-11
 Threshold for integral neglect (rithr1):   0.75E-11

 Contributions to RI integral batches: 
  neglected integral batches:                  1432
  direct contribution:                          206
  memory contribution:                  8802
 Core memory available (ricore):               500 MiB
 Core memory needed for (P|Q) and Cholesky:     10 MiB
 Core memory used for integrals:               468 MiB
 
 ****************************************
 Memory allocated for RIDFT: 477 MiB
 ****************************************
 
  
           ------------------
           density functional
           ------------------
 TPSS meta-GGA functional
 exchange:    LDA + TPSS
 correlation: LDA (PW) + TPSS

 iterations will be done with small grid
  
 spherical integration : Lebedev's spherical grid
 spherical gridsize    :                     3
    i.e. gridpoints    :                   302
 value for diffuse not defined
 radial integration    : Chebyshev 2nd kind (scaling 3)
 radial gridsize       :                     3
 integration cells     :                    30
 partition function    : becke
 partition sharpness   :                     3
  
 
 Derivatives of quadrature weights will be included
 
          Overall gridpoints after grid construction =        155868
 Ordering of quadrature gridpoints disabled.
 
 
 
 
 OCCUPIED-OCCUPIED TENSOR SPACES :

          IRREP   tensor space dimension   number of roots

           a              4761                  84
 
 OCCUPIED-VIRTUAL TENSOR SPACES :

          IRREP   tensor space dimension   number of roots

           a             16767                  84
 
 
 
 
 CONSTRUCTING integral bounds

 setting up bound for integral derivative estimation

 increment for numerical differentiation : 0.00050000
 
 machine precision:   2.220446049250313E-016

 integral neglect threshold       :  0.10E-09
 integral storage threshold THIZE :  0.10E-04
 integral storage threshold THIME :         5

 
 
 
 PREPARING NUMERICAL INTEGRATION
 
 Remaining core memory for DFT =                   379 MB
 
 Memory needed per atom    =                  1303 KiB
 
     i. e.                    30 atoms per loop

 Calculating ground state density on molecular grid

 Integral of ground state density: N =   138.0002356577475    


 
 
 CONSTRUCTING first deriv. of <mu|x,y,z|nu> -> Dip. deriv.
  dipole integral derivatives will be neglected if
  expon. factor <0.150150E-11
      ...terminated. cpu:       0.02       wall:       0.02
 
 
 
 
 CONSTRUCTING first deriv. of  <mu|nu>
                               <mu|h|nu>    -> RHS
              second deriv. of <mu|nu>      -> Hessian
                               <mu|h|nu>    -> Hessian
                               nucl. rep.   -> Hessian
     integrals are neglected if expon. factor <  1.501501501501502E-013
  _________________________________
 |                                 |
 |         DFTD3 V3.1 Rev 0        |
 | S.Grimme, University Bonn       |
 |         June 2014               |
 |   see standalone version        |
 |       dftd3 -h for options      |
 |_________________________________|
 
 Please cite DFT-D3 work done with this code as:
 S. Grimme, J. Antony, S. Ehrlich and H. Krieg,
 J. Chem. Phys, 132 (2010), 154104.
 If used with BJ-damping cite also
 S. Grimme, S. Ehrlich and L. Goerigk,
 J. Comput. Chem. 32 (2011), 1456-1465
 For DFT-D2 the reference is
 S. Grimme, J. Comput. Chem., 27 (2006), 1787-1799
 
      ...terminated. cpu:       1.93       wall:       2.06
 
 
 
 
 CONSTRUCTING second deriv. of 2e energy    -> Hessian
   treating Coulomb (and exchange) contribution
     integrals will be neglected if total contribution <  1.501501501501501E-009
      ...terminated. cpu:     332.57       wall:     332.60
   treating exchange-correlation contribution
      ...terminated. cpu:     167.58       wall:     167.59
 
 
 
 
 CONSTRUCTING S(i,j)xi
      ...terminated. cpu:       0.03       wall:       0.03
 
 
 
 
 CONSTRUCTING <i|x,y,z|j>*S(i,j)xi          -> Dip. deriv.
      ...terminated. cpu:       0.03       wall:       0.03
 
 
 
 
 CONSTRUCTING epsilon(i)*S(i,j)xi*S(i,j)chi -> Hessian
      ...terminated. cpu:       0.01       wall:       0.01
 
 
 
 
 CONSTRUCTING G(a,i)[S(k,l)xi]              -> RHS
              G(i,j)[S(k,l)xi]*S(i,j)chi    -> Hessian
 
         Maximum core memory set to                    500 MB
         This corresponds to                   589 vectors in CAO basis
      ...terminated. cpu:     577.94       wall:     578.01
 
 
 
 
 CONSTRUCTING G(mu,nu)[D(kap,lam)]xi
 
          Maximum core memory set to                    500 MB
          Atoms treated simultaneously :                    30
      ...terminated. cpu:     439.14       wall:     439.19
 
 
 
 
 CONSTRUCTING F(a,i)xi                      -> RHS
              F(i,j)xi*S(i,j)chi            -> Hessian
 
        Maximum core memory set to                   500 MB
        This corresponds to                   905 vectors in CAO basis
      ...terminated. cpu:       0.93       wall:       0.93
 
 
 
 
 CONSTRUCTING epsilon(i)*S(a,i)xi           -> RHS
      ...terminated. cpu:       0.15       wall:       0.15
 
 
 
 
 SOLVING CPHF equations
 
 Residuum convergence criterium   :  1.000000000000000E-005
 
 Maximum number of Davidson iterations set to                    25
  Switching to small grid
        preparing numerical integration ....
          Overall gridpoints after grid construction =         43551

 Calculating ground state density on molecular grid

 Integral of ground state density: N =   137.9988400752547    




                       Nonorthonormal Krylov Space Iteration


 total number of roots to be determined:  84


 maximum core memory set to   500 MB,
 corresponding to      577 vectors in CAO basis


 maximum number of simultaneously treated vectors (including degeneracy):       84


 Iteration IRREP Converged      Max. Euclidean
                 roots          residual norm

    1       a        0        1.377670453738936D-01
 
    2       a        0        7.065908690892349D-03
 
    3       a        0        4.362609634887559D-04
 
    4       a       80        1.513003043136910D-05
 
    5       a       84        9.873845996386462D-06
 

 converged!

  Switching to fine grid
        preparing numerical integration ....
          Overall gridpoints after grid construction =        155868

 Calculating ground state density on molecular grid

 Integral of ground state density: N =   138.0002356577438    



 Iteration IRREP Converged      Max. Euclidean
                 roots          residual norm

    6       a        0        2.425101867418390D-04
 

 NOTE: Residual norms are larger than 1.00D-05 due to mgrid option!

      ...terminated. cpu:     996.36       wall:     996.45
 
 
 
 
 CONSTRUCTING <a|x,y,z|i>*U(a,i)xi          -> Dip. deriv.
      ...terminated. cpu:       0.03       wall:       0.03
 
 
 
 
 CONSTRUCTING RHS(a,i)xi*U(a,i)chi          -> Hessian
      ...terminated. cpu:       0.02       wall:       0.02
 
 
 
 

            -----------------------
            permanent dipole moment
            -----------------------

                                   x                y                z
    electronic part       :    3.5601053041     4.9559853191    44.1912709079
     nuclear   part       :   -3.5731403948    -4.9712465804   -44.3391363427
     total                :   -0.0130350907    -0.0152612613    -0.1478654349

 with reference to the point :   0.0000000        0.0000000        0.0000000
 (given in atomic units)
    | dipole |       :    0.3792856654  debye

   ***  dipole moment & cartesian dipole gradients written onto
        $dipole, $dipgrad,  file=<dipgrad>  ***

             -----------------------------------
             rotational and vibrational analysis
             -----------------------------------


            ==============================================================
            ATOMIC WEIGHTS (average over the natural occurance of isotops)
            ==============================================================
            ('*' denotes special isotop !)
              1     c                12.01115
              2     c                12.01115
              3     c                12.01115
              4     c                12.01115
              5     c                12.01115
              6     c                12.01115
              7     c                12.01115
              8     n                14.00670
              9     c                12.01115
             10     c                12.01115
             11     c                12.01115
             12     c                12.01115
             13     n                14.00670
             14     c                12.01115
             15     c                12.01115
             16     c                12.01115
             17     c                12.01115
             18     c                12.01115
             19     c                12.01115
             20     c                12.01115
             21     n                14.00670
             22     h                 1.00797
             23     h                 1.00797
             24     h                 1.00797
             25     h                 1.00797
             26     h                 1.00797
             27     h                 1.00797
             28     h                 1.00797
             29     h                 1.00797
             30     h                 1.00797

          -------------------------------------------------
          CARTESIAN FORCE CONSTANT MATRIX (hartree/bohr**2)
         (translational & rotational space projected out)
          -------------------------------------------------

   ATOM              1 c                           2 c 
                  dx        dy        dz        dx        dy        dz
   1 c     dx  0.7119301
           dy -0.0335503 0.5325118
           dz -0.1043655-0.1874982 0.2948305
   2 c     dx -0.1599797 0.0877442 0.0015310 0.5370949
           dy  0.0950333-0.1942534 0.0298348 0.0020361 0.7117992
           dz  0.0112871 0.0166604-0.0500154-0.2025792-0.0914428 0.2732545
   3 c     dx -0.3319327-0.0164835 0.0225242-0.0349706 0.0185186 0.0048473
           dy -0.0428354-0.1076797 0.0368484 0.0174045 0.0138049-0.0083865
           dz  0.0266924 0.0351929-0.0591270-0.0027136-0.0102620 0.0021253
   4 c     dx -0.0193803-0.0288260 0.0114618 0.0036363-0.0005149-0.0005298
           dy -0.0322878 0.0005713-0.0011713 0.0058321-0.0144995-0.0015358
           dz  0.0050457-0.0057338-0.0045849 0.0007683 0.0010433 0.0027476
   5 c     dx -0.0123526 0.0094857-0.0014233-0.0138558-0.0315199 0.0002033
           dy  0.0029992 0.0014904-0.0009437-0.0308151-0.0052805 0.0099666
           dz -0.0014980 0.0013016 0.0027604-0.0022260 0.0024091-0.0000140
   6 c     dx  0.0216548 0.0034055-0.0090884-0.1352864-0.0871974 0.0406751
           dy  0.0069580-0.0413282 0.0070049-0.0609048-0.3069205 0.0204918
           dz -0.0090591-0.0005368-0.0036144 0.0379726 0.0234082-0.0568961
   7 c     dx -0.0367908 0.0132675-0.0067337-0.0049700-0.0036047-0.0018204
           dy  0.0376142 0.0362530-0.0220141-0.0007321-0.0013292 0.0040327
           dz -0.0327868-0.0165164 0.0174779 0.0029551 0.0014243 0.0039261
   8 n     dx -0.0304186-0.0328408 0.0249187-0.0026957 0.0068439 0.0021207
           dy -0.0307723-0.0250189 0.0132630-0.0030062 0.0030004-0.0023472
           dz  0.0168397 0.0035520-0.0172181 0.0010355-0.0018706-0.0007566
   9 c     dx  0.0461496 0.0387803-0.0319350 0.0064945-0.0138726 0.0021820
           dy  0.0076381-0.0278291 0.0253006-0.0014576 0.0001564 0.0072207
           dz -0.0074399 0.0398126-0.0100238 0.0049664 0.0005208 0.0005206
  10 c     dx -0.1261717-0.0572280 0.0602143 0.0116276 0.0116513-0.0059006
           dy -0.0291838-0.1714955 0.0990750 0.0144631-0.0470733 0.0165082
           dz  0.0393936 0.1090215-0.1696587-0.0056689 0.0256356-0.0022330
  11 c     dx -0.0177569-0.0114901 0.0157527-0.0029087-0.0105367 0.0125986
           dy -0.0105672 0.0027454 0.0048592-0.0119633-0.0122634 0.0116768
           dz  0.0287665 0.0039399-0.0108945 0.0112150 0.0295983-0.0030084
  12 c     dx -0.0442169 0.0298957 0.0080102-0.1843860-0.0138200 0.1042727
           dy  0.0272056 0.0005229-0.0094061-0.0499179-0.1059082 0.0422332
           dz  0.0217328-0.0179701 0.0016046 0.1191087 0.0218185-0.1706032
  13 n     dx  0.0030715-0.0031054 0.0114406-0.0258074 0.0197715 0.0417693
           dy -0.0095541 0.0127958-0.0044943 0.0647896 0.0180509-0.0448107
           dz  0.0018163 0.0064481-0.0023585 0.0395538-0.0256015-0.0039071
  14 c     dx  0.0005637-0.0039590-0.0011075-0.0261047-0.0146257 0.0138402
           dy  0.0035503-0.0050931 0.0059154-0.0352334-0.0135404 0.0219897
           dz  0.0002338 0.0019662-0.0004014 0.0101442 0.0085745-0.0137732
  15 c     dx -0.0013008-0.0015179 0.0027582 0.0406739 0.0139815-0.0220015
           dy -0.0044251-0.0027919-0.0026327 0.0002867-0.0434162-0.0029698
           dz  0.0025400 0.0027054 0.0061151-0.0222051-0.0203440 0.0149772
  16 c     dx  0.0005605 0.0001458 0.0003242 0.0010484 0.0032232 0.0017497
           dy -0.0008381-0.0006541-0.0000641-0.0007610-0.0023151-0.0018274
           dz -0.0008554-0.0007886 0.0000017 0.0068767-0.0005550 0.0040663
  17 c     dx  0.0031120-0.0032822 0.0003769-0.0074083 0.0074098-0.0015475
           dy  0.0032551-0.0032732 0.0014764 0.0016536 0.0086517-0.0028887
           dz  0.0020306-0.0025037 0.0006333 0.0031630 0.0044275 0.0012923
  18 c     dx -0.0023140 0.0000168-0.0020023-0.0002801-0.0002124 0.0003945
           dy  0.0027244 0.0004807 0.0009384-0.0000847 0.0000377 0.0000303
           dz -0.0012751 0.0066261-0.0008511-0.0013191-0.0006930 0.0007825
  19 c     dx  0.0107898-0.0025269-0.0027419-0.0033190 0.0030151 0.0009897
           dy  0.0065532-0.0092569 0.0009232-0.0025132 0.0025544-0.0004481
           dz  0.0052317-0.0002117 0.0033815-0.0008482 0.0025440-0.0001485
  20 c     dx  0.0028355-0.0014797 0.0005370-0.0017620 0.0027686-0.0017046
           dy -0.0082352 0.0053514-0.0004718 0.0027371-0.0060570-0.0000474
           dz -0.0022773 0.0000330 0.0011940 0.0004210-0.0008687-0.0007186
  21 n     dx -0.0070233 0.0055957-0.0006544 0.0025400-0.0086991 0.0022055
           dy  0.0027379-0.0023705-0.0008851-0.0011760 0.0029455 0.0015480
           dz -0.0007497 0.0011489-0.0008659-0.0023619-0.0015717 0.0016246
  22 h     dx -0.0002124 0.0014928-0.0003389-0.0003140-0.0001400 0.0003020
           dy  0.0004475 0.0014879 0.0003139-0.0001974-0.0001870 0.0000555
           dz  0.0003336 0.0000921-0.0001884 0.0000388-0.0000716 0.0000095
  23 h     dx -0.0004137-0.0007913-0.0002760 0.0002021-0.0000352-0.0000634
           dy  0.0001364-0.0004043 0.0000234 0.0002245 0.0000342-0.0000117
           dz  0.0002476 0.0000821-0.0003713 0.0001103-0.0000731 0.0000175
  24 h     dx -0.0007641 0.0019925 0.0009862-0.0004057-0.0002893-0.0020162
           dy  0.0003537-0.0014270-0.0016785 0.0011663-0.0003371 0.0034500
           dz  0.0005316 0.0006794-0.0010864 0.0006826 0.0002254-0.0012511
  25 h     dx -0.0048588 0.0023247 0.0016953-0.0001018 0.0009617-0.0001200
           dy  0.0018908-0.0015566-0.0007315 0.0000547-0.0056472 0.0014059
           dz  0.0005232 0.0000458-0.0000344 0.0002292 0.0011790-0.0002556
  26 h     dx -0.0001914 0.0001883-0.0001589-0.0006419 0.0000390-0.0004103
           dy -0.0000688 0.0001168-0.0000652-0.0007747-0.0009048-0.0005277
           dz -0.0000260 0.0000137-0.0000167 0.0001756 0.0000259-0.0004094
  27 h     dx -0.0004183-0.0001092 0.0001939 0.0019387-0.0000199 0.0010175
           dy -0.0001707-0.0001891 0.0001717 0.0011277-0.0003974 0.0000512
           dz -0.0000208 0.0000072-0.0000815 0.0000981 0.0003990-0.0003464
  28 h     dx -0.0009575-0.0001327-0.0007832-0.0007624-0.0007801-0.0009763
           dy  0.0004491 0.0000641-0.0002936 0.0006864-0.0006424 0.0002369
           dz -0.0012531-0.0004205-0.0011521-0.0008630 0.0000465-0.0002641
  29 h     dx -0.0000142-0.0000103 0.0000060 0.0000715-0.0000232 0.0001589
           dy -0.0000042-0.0004975 0.0001719 0.0001953-0.0000313-0.0000421
           dz  0.0001516-0.0004629-0.0002890-0.0002977-0.0001927-0.0000629
  30 h     dx -0.0031987 0.0029975-0.0011219 0.0006324 0.0006373-0.0009443
           dy  0.0029459 0.0007276 0.0062299-0.0008643-0.0000314-0.0002720
           dz -0.0017911 0.0033134 0.0048346 0.0000371 0.0004320-0.0006804

   ATOM              3 c                           4 c 
                  dx        dy        dz        dx        dy        dz
   3 c     dx  0.7287229
           dy  0.0529877 0.5498411
           dz  0.0763029-0.1757863 0.2471642
   4 c     dx -0.1146848-0.0587382-0.0001627 0.6281160
           dy -0.0633400-0.2459092 0.0351764-0.0444712 0.6962158
           dz -0.0060477 0.0192407-0.0470284 0.1460311-0.0306547 0.2189176
   5 c     dx  0.0195310 0.0131418-0.0003225-0.2022190 0.1218969-0.0237610
           dy  0.0137400-0.0375619 0.0093910 0.0953255-0.2518526 0.0001882
           dz  0.0051676 0.0037114-0.0012578-0.0217242-0.0011318-0.0450816
   6 c     dx -0.0071700-0.0115505 0.0049660-0.0301915 0.0264119-0.0015959
           dy -0.0055566-0.0027672 0.0020049 0.0244122 0.0127757 0.0037611
           dz  0.0013221 0.0032614 0.0018302 0.0056083-0.0002017-0.0057615
   7 c     dx -0.1894357 0.0775676-0.0931595 0.0153098 0.0124644-0.0000622
           dy  0.0387245-0.1237421 0.0597644 0.0059820-0.0535601 0.0155308
           dz -0.0789851 0.0740698-0.1479819 0.0011166 0.0310400-0.0036223
   8 n     dx  0.0456483-0.0129759 0.0081427 0.0028104 0.0096691-0.0039449
           dy  0.0316777-0.0409180 0.0562218 0.0058791 0.0115835 0.0098257
           dz -0.0118144 0.0548038-0.0165628-0.0082427-0.0050534-0.0008072
   9 c     dx -0.0452508 0.0264157-0.0217249-0.0049793-0.0064074-0.0029153
           dy  0.0070125-0.0015937-0.0013123 0.0004479-0.0010000-0.0039390
           dz -0.0062906-0.0022008-0.0065053-0.0008530 0.0007672 0.0011368
  10 c     dx -0.0056979-0.0322388 0.0212847-0.0050161 0.0027321 0.0031320
           dy -0.0461015 0.0123575-0.0078315 0.0000418 0.0013534 0.0042335
           dz  0.0381045-0.0023438 0.0054791-0.0011649 0.0008260 0.0057733
  11 c     dx -0.0006466 0.0014428 0.0016327-0.0003829 0.0000929-0.0000345
           dy -0.0035939 0.0000705 0.0036917-0.0006709 0.0005239 0.0004166
           dz -0.0015561 0.0065179 0.0033194 0.0012775-0.0004225-0.0002091
  12 c     dx  0.0077351 0.0076921 0.0011165-0.0016295-0.0053236-0.0004318
           dy  0.0011836-0.0073518 0.0006313 0.0005163 0.0018412-0.0006475
           dz -0.0069787-0.0001873 0.0020781 0.0016027 0.0041290 0.0002446
  13 n     dx -0.0012874-0.0015642-0.0016594 0.0001177 0.0011637 0.0007622
           dy  0.0068079 0.0067562-0.0008219-0.0015849-0.0095410 0.0010649
           dz  0.0025568-0.0015098 0.0016132-0.0006764-0.0006539-0.0008666
  14 c     dx -0.0021734-0.0028361 0.0014975 0.0007697 0.0062731-0.0003861
           dy -0.0033607-0.0051337-0.0003355 0.0003431 0.0073455 0.0000187
           dz  0.0012005 0.0018507-0.0012203 0.0011873-0.0040803 0.0012255
  15 c     dx  0.0008352 0.0045742-0.0008026-0.0026266-0.0126917 0.0031251
           dy -0.0002822-0.0022470 0.0013779-0.0057433 0.0045260-0.0017812
           dz -0.0019828-0.0028375 0.0004735-0.0005819 0.0074690 0.0028956
  16 c     dx  0.0001205-0.0000436-0.0000751-0.0001925-0.0017668 0.0002223
           dy  0.0004897-0.0001186 0.0003188 0.0008476-0.0034096-0.0021938
           dz  0.0013611-0.0007680 0.0006070-0.0053318-0.0038291 0.0008570
  17 c     dx -0.0048424 0.0015141-0.0008063 0.0501130 0.0037790 0.0149350
           dy  0.0031022-0.0023933-0.0036847 0.0338104-0.0421555 0.0031982
           dz -0.0010981 0.0022311 0.0049113 0.0202744-0.0162368 0.0090782
  18 c     dx -0.0290375 0.0001930-0.0108785-0.0184119 0.0169908-0.0122365
           dy -0.0010156 0.0042834 0.0048722 0.0155660-0.0004927 0.0074807
           dz -0.0255674-0.0051728 0.0062987-0.0179913 0.0189150-0.0073236
  19 c     dx -0.0262973-0.0369587-0.0022203-0.2444090-0.0257398-0.0973343
           dy -0.0336467-0.0160417-0.0043872 0.0060397-0.1023260-0.0033069
           dz -0.0106808-0.0082789 0.0048802-0.0983626-0.0194069-0.1207396
  20 c     dx -0.0067944-0.0047071-0.0052670 0.0021859-0.0339501-0.0053350
           dy  0.0065223 0.0116401-0.0041633-0.0693798 0.0027936-0.0270563
           dz -0.0020072 0.0041282 0.0023954-0.0267984-0.0202586 0.0032050
  21 n     dx  0.0034942 0.0066414-0.0006563-0.0596935 0.0180957-0.0163728
           dy -0.0026678-0.0024943 0.0038373 0.0216932 0.0002440 0.0093076
           dz  0.0003820 0.0005189-0.0013854-0.0041850 0.0076209-0.0132365
  22 h     dx -0.0041321-0.0022632-0.0000851-0.0006440 0.0006663-0.0001420
           dy -0.0032342-0.0019112 0.0000728 0.0005454-0.0055917 0.0023097
           dz  0.0000386 0.0002845 0.0000437-0.0002214 0.0008508-0.0002078
  23 h     dx -0.0005746-0.0009965-0.0020405-0.0002429 0.0000444 0.0007716
           dy -0.0003022-0.0010434-0.0034762-0.0013735-0.0017452 0.0020860
           dz -0.0006631 0.0006985-0.0003868-0.0008877 0.0001899-0.0012866
  24 h     dx -0.0010083 0.0005737 0.0007364 0.0001197 0.0002333 0.0000861
           dy -0.0003453-0.0003896-0.0000356-0.0000514-0.0001824-0.0000806
           dz  0.0000561 0.0000165-0.0005563-0.0000229-0.0000633-0.0000229
  25 h     dx  0.0004278-0.0019012-0.0005444-0.0004046 0.0001719-0.0001944
           dy -0.0005666 0.0009836 0.0008741 0.0001557-0.0002354 0.0000706
           dz -0.0005098 0.0001777-0.0002150 0.0000614-0.0000450-0.0000413
  26 h     dx  0.0001650-0.0002135 0.0000279-0.0006966-0.0002421 0.0002085
           dy -0.0000021 0.0000879-0.0000525 0.0005463-0.0001434-0.0004015
           dz -0.0000249 0.0001728 0.0000060-0.0001806 0.0002101-0.0003552
  27 h     dx -0.0003825 0.0001651-0.0001351 0.0017219 0.0007556-0.0006076
           dy  0.0001685-0.0001132 0.0002200-0.0004200-0.0006567-0.0003256
           dz  0.0001117 0.0000433 0.0000039-0.0006340 0.0001282 0.0000033
  28 h     dx  0.0001212-0.0002313-0.0000643-0.0003446-0.0001413-0.0001292
           dy  0.0000862-0.0000268 0.0001389-0.0001859-0.0000966-0.0000579
           dz  0.0002695-0.0001243-0.0001160 0.0003570 0.0003741-0.0003672
  29 h     dx  0.0000704 0.0005138 0.0004923 0.0010038-0.0008278-0.0039078
           dy -0.0011560 0.0004755-0.0005700-0.0007827-0.0053914-0.0028904
           dz -0.0004483-0.0004114-0.0006273-0.0010599-0.0020478 0.0067450
  30 h     dx -0.0005526-0.0007734 0.0004259 0.0002456-0.0000835 0.0003513
           dy  0.0006335-0.0008643-0.0010674 0.0005908-0.0009849-0.0007071
           dz  0.0004099-0.0005682-0.0002591 0.0006331-0.0009036-0.0012871

   ATOM              5 c                           6 c 
                  dx        dy        dz        dx        dy        dz
   5 c     dx  0.6704022
           dy -0.0658188 0.6675385
           dz  0.0271612 0.1284876 0.1883616
   6 c     dx -0.2639860-0.0256430 0.0200013 0.5991191
           dy -0.0288699-0.0961551-0.0063624 0.0681962 0.7039938
           dz  0.0375698-0.0046244-0.0462520-0.1383006 0.0834227 0.2370753
   7 c     dx  0.0009034-0.0066982-0.0001886-0.0017794-0.0002454 0.0012480
           dy -0.0111744-0.0000321 0.0033527 0.0050958 0.0011372-0.0012851
           dz  0.0050435-0.0044776 0.0016323-0.0044246-0.0006483 0.0011286
   8 n     dx  0.0070505-0.0012588 0.0004532-0.0070297-0.0027022 0.0003179
           dy  0.0058331-0.0014017-0.0020763-0.0050368-0.0019665 0.0013827
           dz -0.0017931 0.0035884 0.0014290 0.0027652 0.0004099-0.0012418
   9 c     dx -0.0074058 0.0006112 0.0008171 0.0088964 0.0045584-0.0019570
           dy  0.0002233-0.0001079 0.0013501-0.0016596-0.0002323 0.0001492
           dz -0.0008968-0.0000908-0.0010511 0.0013897 0.0022085 0.0007167
  10 c     dx  0.0009481-0.0001215-0.0008944-0.0061546 0.0033537 0.0016181
           dy -0.0046539-0.0018396-0.0001355 0.0111764 0.0068009 0.0008703
           dz  0.0038265-0.0001269-0.0000303-0.0052952-0.0053372 0.0042486
  11 c     dx  0.0000670-0.0001352-0.0001166-0.0011807-0.0027925 0.0025262
           dy  0.0000511-0.0000053-0.0001734 0.0010036-0.0006875 0.0011852
           dz  0.0000886 0.0016905 0.0004879 0.0063230-0.0021347-0.0008409
  12 c     dx -0.0002635-0.0008434 0.0048232-0.0034807-0.0578079-0.0017743
           dy  0.0009378-0.0062205 0.0019816-0.0305670 0.0159859 0.0180734
           dz -0.0003215-0.0007913 0.0041338 0.0096470 0.0384186 0.0043686
  13 n     dx -0.0000915 0.0007362-0.0033672 0.0006955 0.0122196-0.0039560
           dy -0.0086274 0.0001660-0.0007062 0.0128461-0.0644756-0.0171219
           dz -0.0000723-0.0002103-0.0004592-0.0087970-0.0052856-0.0089977
  14 c     dx  0.0083390 0.0015636 0.0048174-0.0282310 0.0426923 0.0289344
           dy  0.0119398-0.0037992-0.0046550 0.0134921 0.0452414 0.0014698
           dz -0.0050401-0.0035826 0.0027085 0.0366747-0.0275360-0.0088555
  15 c     dx -0.0433709 0.0202402 0.0137632-0.1198660 0.0378258 0.0478677
           dy  0.0252050 0.0054633-0.0055240 0.0686887-0.2169111-0.0911218
           dz  0.0207512-0.0099194 0.0001850 0.0596692-0.0776311-0.1290011
  16 c     dx  0.0000135 0.0109285 0.0016162 0.0067195-0.0052762-0.0029409
           dy  0.0129406-0.0237502-0.0121630-0.0053973-0.0313707-0.0111181
           dz  0.0174420-0.0197461 0.0052181-0.0100172-0.0218120-0.0014550
  17 c     dx -0.0992228-0.0055137-0.0153803-0.0353211-0.0342378-0.0032046
           dy -0.0463099-0.2433014-0.0933717-0.0401973-0.0108837 0.0017765
           dz -0.0310187-0.0971151-0.1195079-0.0165264-0.0062330 0.0043700
  18 c     dx -0.0026993 0.0020209-0.0028804-0.0000711 0.0011477-0.0004872
           dy -0.0020959-0.0000221 0.0004120 0.0001306 0.0001797-0.0003011
           dz -0.0033370-0.0047489 0.0054860-0.0002792 0.0010562-0.0001631
  19 c     dx -0.0291052 0.0408036-0.0002084 0.0000522 0.0026350-0.0042456
           dy  0.0236925 0.0369489 0.0146226 0.0009847-0.0046868 0.0015281
           dz -0.0118086 0.0231694 0.0043834 0.0010564-0.0010267 0.0066963
  20 c     dx  0.0050478 0.0199102 0.0075401-0.0033945 0.0001302 0.0058815
           dy -0.0028334-0.0509922-0.0139077 0.0064592-0.0016697-0.0018124
           dz  0.0027253-0.0045277-0.0075006 0.0001819-0.0008839 0.0001460
  21 n     dx -0.0310201-0.0757795-0.0422927 0.0157379-0.0001747-0.0101630
           dy -0.0276169 0.0116869-0.0172812-0.0031439-0.0029452-0.0075152
           dz -0.0357533-0.0237941 0.0074550 0.0052302-0.0046364 0.0007438
  22 h     dx -0.0003091 0.0000220-0.0004699-0.0001205 0.0000195 0.0000502
           dy  0.0012947 0.0014463-0.0013674-0.0000545-0.0005077-0.0001477
           dz -0.0000102-0.0007135 0.0000564 0.0000342 0.0001166-0.0000489
  23 h     dx -0.0005359 0.0006266-0.0004090-0.0000052-0.0000286 0.0000248
           dy -0.0001000-0.0008841 0.0007375-0.0002719-0.0000189 0.0001752
           dz -0.0000428-0.0000621-0.0005372 0.0000944 0.0000154-0.0000631
  24 h     dx -0.0000093-0.0001013 0.0000472-0.0001242-0.0002584 0.0002162
           dy  0.0001247 0.0002325 0.0000070 0.0006076-0.0006815 0.0002876
           dz -0.0001484-0.0001093 0.0000341-0.0002045-0.0001743-0.0003813
  25 h     dx -0.0000821 0.0000376-0.0001115 0.0002529-0.0005943 0.0005942
           dy -0.0000195-0.0004688-0.0001731-0.0017230 0.0009227-0.0000848
           dz -0.0000733 0.0001149 0.0000560 0.0003201-0.0005903-0.0001023
  26 h     dx -0.0006435-0.0000418 0.0041015-0.0023176 0.0000163-0.0019604
           dy  0.0004253-0.0002343-0.0002169-0.0010205-0.0001520-0.0002301
           dz -0.0002571-0.0009516-0.0011249 0.0006200-0.0010059-0.0008097
  27 h     dx -0.0046794 0.0027948 0.0007465-0.0041977-0.0025478-0.0007903
           dy  0.0018402-0.0012904-0.0003840-0.0026930-0.0024727-0.0004501
           dz  0.0006055-0.0005975-0.0000193 0.0005237 0.0001682 0.0002180
  28 h     dx  0.0002348 0.0011048-0.0000506-0.0025307-0.0016750 0.0067058
           dy -0.0002963 0.0004792 0.0006825-0.0022826 0.0000596-0.0008938
           dz  0.0004261-0.0005500-0.0007973 0.0045982 0.0010993 0.0048335
  29 h     dx -0.0006043-0.0005652 0.0008487-0.0003097-0.0007338 0.0002906
           dy  0.0008098-0.0004168 0.0007468-0.0001485-0.0001175 0.0005785
           dz  0.0002824 0.0007845-0.0006514 0.0002727 0.0010636-0.0016159
  30 h     dx -0.0000812-0.0001295-0.0000867-0.0003799 0.0002411 0.0000908
           dy  0.0000940 0.0001648-0.0001730 0.0000883-0.0001466-0.0001236
           dz -0.0000454 0.0003017-0.0001030-0.0005136 0.0000562-0.0002754

   ATOM              7 c                           8 n 
                  dx        dy        dz        dx        dy        dz
   7 c     dx  0.5499245
           dy  0.1069789 0.5733505
           dz  0.0210540-0.2544735 0.4108401
   8 n     dx -0.1299875-0.1104762 0.0673432 0.6767082
           dy -0.1043009-0.2673252 0.1263244 0.2080992 0.4000074
           dz  0.0651334 0.1392810-0.1871338-0.1365305-0.2012271 0.2899235
   9 c     dx -0.0496941-0.0650386 0.0552123-0.4526625-0.0827548 0.0513166
           dy -0.0360066-0.0205678 0.0199897-0.0792957-0.1032314 0.0046372
           dz  0.0291378 0.0200820 0.0057098 0.0571232 0.0063608-0.1125522
  10 c     dx  0.0063439 0.0177886-0.0153053-0.0779861 0.0068868-0.0074320
           dy  0.0038290-0.0364595 0.0222706 0.0451635 0.0385743-0.0026973
           dz -0.0008333 0.0251270-0.0316251-0.0449987-0.0128604 0.0446265
  11 c     dx -0.0008516-0.0037910 0.0021411 0.0086961 0.0071369 0.0008634
           dy -0.0015246-0.0036602 0.0028398 0.0052876 0.0026423 0.0045396
           dz -0.0008198-0.0001308-0.0003559-0.0015079 0.0043071 0.0016010
  12 c     dx  0.0006603 0.0014689-0.0008428-0.0018915-0.0003638-0.0024329
           dy  0.0000675 0.0014920 0.0009057-0.0007742-0.0001033 0.0002600
           dz -0.0001240-0.0006563-0.0004272-0.0011575-0.0000850 0.0010830
  13 n     dx -0.0003052-0.0002401-0.0009365-0.0009319-0.0004327 0.0005225
           dy  0.0005560-0.0017342 0.0009315 0.0036437 0.0014806-0.0007709
           dz  0.0001180 0.0014477-0.0002473-0.0008450-0.0014802-0.0003238
  14 c     dx -0.0007084 0.0017881-0.0012383-0.0017439-0.0015581 0.0010527
           dy -0.0011704 0.0012758-0.0012593-0.0016993-0.0014254 0.0013290
           dz  0.0005457-0.0014094 0.0008413 0.0015883 0.0012900-0.0006274
  15 c     dx  0.0015471-0.0023260 0.0011732 0.0016441 0.0023523-0.0011469
           dy -0.0002579 0.0015195-0.0003429-0.0010913-0.0010827 0.0005612
           dz  0.0000697 0.0007128-0.0015767-0.0013556-0.0004683 0.0009523
  16 c     dx -0.0001429-0.0001624 0.0000557-0.0000933 0.0000312 0.0000305
           dy  0.0000978 0.0000686 0.0000962-0.0000095-0.0002439 0.0001685
           dz -0.0007423-0.0004310 0.0001211 0.0002482 0.0000958-0.0000194
  17 c     dx  0.0018988-0.0009364 0.0002261-0.0015476-0.0006731-0.0009664
           dy  0.0006266 0.0001103 0.0000107-0.0012142-0.0009614-0.0002909
           dz -0.0009364-0.0010420-0.0002391 0.0000640-0.0010815 0.0001818
  18 c     dx -0.1327071-0.0161629-0.0171650-0.0050408-0.0119390 0.0107947
           dy -0.0339572-0.0850560-0.0099364-0.0171245-0.0105367 0.0041244
           dz -0.0118661-0.0048385-0.0780537 0.0168655 0.0042316-0.0037347
  19 c     dx  0.0043725-0.0143952 0.0016335-0.0069552-0.0063193 0.0003680
           dy -0.0169222-0.0385040 0.0029327 0.0014193 0.0001885-0.0038412
           dz  0.0039110 0.0089699 0.0014925-0.0019613-0.0039662 0.0010360
  20 c     dx -0.0035354 0.0016096-0.0014939 0.0014150 0.0009939-0.0013716
           dy  0.0030005 0.0000914 0.0044058 0.0020734 0.0031442-0.0003805
           dz -0.0011109 0.0041024-0.0027889 0.0006871 0.0003448 0.0015413
  21 n     dx -0.0006131 0.0004309 0.0009865 0.0025917 0.0025132 0.0007996
           dy  0.0011506-0.0012770-0.0010375-0.0017619-0.0016374 0.0004804
           dz  0.0012599-0.0021831 0.0009930-0.0000936 0.0004117-0.0007864
  22 h     dx -0.0091908 0.0021696-0.0229900 0.0019753-0.0000668 0.0009574
           dy -0.0040474 0.0020183-0.0160409 0.0014793-0.0006279 0.0000456
           dz  0.0006192 0.0002181 0.0008839 0.0008298 0.0001567 0.0002839
  23 h     dx -0.0181441 0.0073153 0.0150713-0.0004923 0.0011892-0.0008491
           dy -0.0132152 0.0093891 0.0129833-0.0007000-0.0013754-0.0001143
           dz -0.0022937 0.0019467 0.0032188 0.0006647 0.0012236-0.0001953
  24 h     dx -0.0004296 0.0002200 0.0002989-0.0001894 0.0002413 0.0009452
           dy  0.0009170-0.0001317-0.0002025-0.0008386 0.0000160-0.0004252
           dz  0.0002041-0.0002520-0.0000226 0.0002948 0.0000703-0.0002707
  25 h     dx  0.0001242 0.0006074 0.0001508-0.0009176-0.0009476-0.0005349
           dy  0.0002329-0.0003785-0.0001577-0.0000856 0.0002574 0.0001870
           dz  0.0000029-0.0005227 0.0003727 0.0008115 0.0004604-0.0000590
  26 h     dx -0.0002528-0.0000508-0.0001032 0.0001811 0.0001285-0.0000165
           dy  0.0000668 0.0000262 0.0000487 0.0000487-0.0000307 0.0000491
           dz  0.0001069 0.0000280 0.0000500 0.0000059 0.0000182-0.0000123
  27 h     dx  0.0000728 0.0001018-0.0000525 0.0000798 0.0000441-0.0000653
           dy -0.0001284-0.0000701-0.0000203 0.0000830-0.0000216 0.0000576
           dz -0.0000045-0.0000170-0.0000201 0.0000172 0.0000024 0.0000191
  28 h     dx -0.0002011 0.0001862 0.0000765 0.0000567-0.0001204 0.0000459
           dy  0.0000153-0.0000164-0.0000232 0.0001407 0.0000263 0.0000421
           dz -0.0002963 0.0002484 0.0000888 0.0000875-0.0002188 0.0000867
  29 h     dx -0.0004705-0.0003512 0.0000918 0.0002390 0.0000570 0.0000930
           dy  0.0000889 0.0001136-0.0000233 0.0001092 0.0001282 0.0000586
           dz -0.0004302 0.0001271 0.0001134 0.0000314-0.0001168 0.0000531
  30 h     dx -0.0009472-0.0022445 0.0016939-0.0285126-0.0247718 0.0196328
           dy  0.0011517 0.0069986 0.0048868-0.0192117-0.0031409-0.0015041
           dz -0.0019886 0.0042837 0.0052046 0.0097795-0.0000631-0.0005157

   ATOM              9 c                          10 c 
                  dx        dy        dz        dx        dy        dz
   9 c     dx  0.7780605
           dy  0.0413063 0.4678471
           dz -0.0447057-0.2202559 0.3912806
  10 c     dx -0.2041922 0.0954835-0.0661570 0.5734641
           dy  0.0721454-0.1672753 0.0655889-0.1033659 0.4692144
           dz -0.0262019 0.0677094-0.1449335-0.0152484-0.2272965 0.3781052
  11 c     dx -0.0224011 0.0022219 0.0015946-0.1373749 0.0127653 0.0208917
           dy  0.0100026 0.0060339-0.0098055 0.0307347-0.0787882 0.0031385
           dz -0.0132058-0.0034853 0.0056200 0.0224705 0.0027459-0.0856044
  12 c     dx -0.0025509-0.0010466 0.0044898-0.0148180 0.0263978 0.0002205
           dy -0.0023133-0.0012464-0.0014125 0.0275009-0.0213228-0.0029767
           dz  0.0052688-0.0012578-0.0024782-0.0043665 0.0020312 0.0029629
  13 n     dx  0.0014201-0.0009537 0.0001829 0.0004329 0.0014904-0.0029291
           dy -0.0019399 0.0032183-0.0011190-0.0062506-0.0056646 0.0054367
           dz  0.0008301 0.0010058 0.0014998-0.0021338 0.0031956-0.0005258
  14 c     dx  0.0018195-0.0006136-0.0003061-0.0011763-0.0004271 0.0006788
           dy  0.0019508-0.0011996-0.0004105 0.0014032-0.0009394-0.0020215
           dz -0.0013654 0.0005195-0.0004941 0.0011251-0.0009321 0.0007144
  15 c     dx -0.0019984 0.0002044 0.0001816 0.0017391 0.0000217 0.0003248
           dy  0.0007997-0.0001376 0.0002362-0.0006519-0.0002368 0.0008265
           dz  0.0006741-0.0015010-0.0003694-0.0000492-0.0007637-0.0008305
  16 c     dx  0.0001602-0.0001255 0.0000467-0.0002524 0.0002458-0.0002050
           dy -0.0000443-0.0000252-0.0000481 0.0000579 0.0000396 0.0002145
           dz -0.0000863-0.0000882 0.0002478 0.0004937 0.0000772-0.0000259
  17 c     dx  0.0015847-0.0007687 0.0008481 0.0001315 0.0017672-0.0012012
           dy  0.0025281-0.0004297 0.0007391-0.0005353 0.0026944-0.0006115
           dz  0.0013083-0.0002062 0.0002388-0.0006062 0.0004397-0.0013246
  18 c     dx  0.0082862-0.0015656-0.0049612-0.0023515 0.0021028-0.0025560
           dy -0.0016419 0.0029299 0.0007958 0.0002297-0.0006225 0.0018246
           dz -0.0023703 0.0060599 0.0024945 0.0016686-0.0002832 0.0003523
  19 c     dx -0.0001563 0.0011384 0.0003351-0.0000716-0.0009863 0.0006346
           dy -0.0005311-0.0012226 0.0017999-0.0003915 0.0015624 0.0001709
           dz  0.0016649 0.0015667 0.0000158-0.0009710-0.0001466-0.0007247
  20 c     dx  0.0002795-0.0003555 0.0000943-0.0000324 0.0009313 0.0007917
           dy -0.0031288 0.0004009-0.0008827 0.0004786-0.0018494 0.0013742
           dz  0.0006151-0.0000772-0.0005564-0.0003893-0.0000185-0.0005994
  21 n     dx -0.0035880 0.0007724-0.0013661 0.0004481-0.0032946 0.0015462
           dy  0.0010412-0.0001985 0.0005100 0.0000229 0.0002717-0.0009376
           dz -0.0011518 0.0000598-0.0000669 0.0002142-0.0004808 0.0008128
  22 h     dx -0.0009434 0.0008577 0.0002253 0.0003542-0.0004753-0.0000694
           dy -0.0005818 0.0010360 0.0002300 0.0000630-0.0006732-0.0000974
           dz -0.0007396 0.0001818 0.0000840 0.0001075-0.0002637 0.0003116
  23 h     dx -0.0008505-0.0010341-0.0008502-0.0000125-0.0002125 0.0000472
           dy  0.0003450-0.0005628-0.0007095-0.0005064-0.0001668-0.0000774
           dz -0.0003094-0.0000802-0.0000293-0.0000939-0.0002528 0.0001105
  24 h     dx -0.0004171-0.0002749 0.0016391-0.0205168-0.0140649-0.0119883
           dy  0.0009158-0.0009048-0.0005768 0.0078593 0.0090496 0.0067931
           dz -0.0004805-0.0000620 0.0003439 0.0050416 0.0060027 0.0047534
  25 h     dx  0.0023671-0.0004098 0.0009579-0.0054546-0.0044239 0.0257058
           dy  0.0001397 0.0004015-0.0006954-0.0002554 0.0014518-0.0087013
           dz -0.0011577 0.0008220 0.0004994 0.0004220 0.0002272-0.0020298
  26 h     dx -0.0000466 0.0000188-0.0000702-0.0000200-0.0000633 0.0001548
           dy -0.0000561 0.0000582-0.0000702-0.0000496-0.0001124 0.0001088
           dz -0.0000472 0.0000279-0.0000076-0.0000377-0.0000171 0.0000032
  27 h     dx -0.0000829 0.0000205-0.0000290 0.0001011-0.0001543 0.0000824
           dy -0.0000482-0.0000145 0.0000299 0.0001102-0.0000702 0.0000401
           dz -0.0000261 0.0000187-0.0000003-0.0000056-0.0000087-0.0000181
  28 h     dx -0.0000142 0.0000830-0.0000800 0.0001936-0.0002514 0.0002270
           dy  0.0000166 0.0001121-0.0001079-0.0001996-0.0002771 0.0000630
           dz -0.0000463 0.0001039-0.0000390 0.0001171-0.0003042 0.0003074
  29 h     dx -0.0001867 0.0000022-0.0000338-0.0000129-0.0001095 0.0000313
           dy -0.0000587-0.0000004-0.0000155-0.0001325 0.0000808 0.0000515
           dz -0.0000068 0.0000047 0.0000090 0.0000946 0.0000487 0.0000592
  30 h     dx -0.0580975-0.0318634 0.0308272 0.0115283 0.0152265-0.0143012
           dy -0.0231393-0.1544147 0.0987191-0.0044296-0.0085841 0.0150264
           dz  0.0305437 0.0955374-0.1313105 0.0015867 0.0181175-0.0084568

   ATOM             11 c                          12 c 
                  dx        dy        dz        dx        dy        dz
  11 c     dx  0.4454888
           dy  0.0861447 0.3969526
           dz -0.0160307-0.0027541 0.5777058
  12 c     dx -0.0746757-0.0153810 0.0052879 0.4650268
           dy  0.0013664-0.1312505 0.0255739-0.1156053 0.6836949
           dz -0.0006063 0.0331427-0.0891778-0.2125222 0.0451837 0.3852450
  13 n     dx  0.0030780 0.0056935-0.0062528-0.1384119 0.1228049 0.0485534
           dy  0.0112447-0.0244665-0.0120402 0.1318375-0.3084169-0.0952753
           dz -0.0046561-0.0065974 0.0021357 0.0593170-0.0995748-0.1379470
  14 c     dx  0.0058022 0.0045795 0.0054197 0.0155641-0.0038945-0.0093014
           dy  0.0037634 0.0061356-0.0019001 0.0267937-0.1020423-0.0324686
           dz  0.0022347 0.0029226 0.0018312-0.0032604-0.0091634 0.0221094
  15 c     dx -0.0020103-0.0023815-0.0004102-0.0341320 0.0253082 0.0217553
           dy  0.0002408-0.0008227-0.0010236 0.0109606 0.0009676-0.0059597
           dz  0.0029366 0.0016262 0.0002054 0.0202441-0.0202811-0.0283924
  16 c     dx -0.0003839-0.0004310-0.0004256-0.0006715 0.0017346 0.0010185
           dy  0.0006183 0.0004570 0.0006135 0.0036047-0.0042181-0.0024313
           dz -0.0010088-0.0006596-0.0005712-0.0005559 0.0016641 0.0000449
  17 c     dx  0.0000986 0.0003177 0.0007116 0.0006603 0.0002322 0.0011502
           dy -0.0001199-0.0001099-0.0004135-0.0015359 0.0015920-0.0001554
           dz -0.0000942-0.0000742 0.0000066-0.0001781-0.0000480-0.0004685
  18 c     dx  0.0004353 0.0007641 0.0007589 0.0000424-0.0001485 0.0001071
           dy -0.0003626-0.0003766-0.0005353 0.0000541 0.0000631-0.0000753
           dz -0.0005317-0.0008514-0.0005607-0.0000180 0.0008678-0.0001088
  19 c     dx  0.0000115-0.0001314-0.0002965 0.0026195-0.0005859-0.0008909
           dy  0.0002403-0.0003125 0.0003886 0.0017597 0.0000528-0.0012786
           dz -0.0001179-0.0002278 0.0000842 0.0000815-0.0007914-0.0011497
  20 c     dx -0.0000201 0.0000332 0.0001672 0.0004930 0.0003498-0.0005737
           dy -0.0000568 0.0001862-0.0000225-0.0027252 0.0005236 0.0018427
           dz  0.0000641 0.0000614 0.0001943-0.0008650 0.0002823 0.0003876
  21 n     dx -0.0002894-0.0001013-0.0001341-0.0014759 0.0004158 0.0012331
           dy -0.0000076-0.0001284 0.0001893 0.0011964-0.0006081 0.0004115
           dz -0.0001106-0.0000351 0.0000324 0.0009797-0.0007365-0.0001945
  22 h     dx -0.0001186-0.0001890-0.0000718-0.0000250 0.0001797-0.0000406
           dy -0.0001244-0.0001806-0.0000767-0.0000486 0.0000414 0.0000373
           dz -0.0000622-0.0000687-0.0000456-0.0000005-0.0000076-0.0000348
  23 h     dx  0.0000543 0.0001481 0.0001404-0.0000464-0.0001607 0.0001245
           dy  0.0000942 0.0000964 0.0000616-0.0000675-0.0001748 0.0001198
           dz -0.0000306-0.0000341 0.0000348-0.0000099-0.0000506 0.0000373
  24 h     dx -0.1555860-0.0970953-0.0846040 0.0054336 0.0009770 0.0037558
           dy -0.0974971-0.1188523-0.0695576-0.0196743-0.0172007-0.0141696
           dz -0.0808285-0.0667298-0.1000693 0.0075875 0.0059180 0.0062493
  25 h     dx -0.0486120 0.0007480 0.0430327 0.0001050-0.0018122-0.0022901
           dy  0.0003231-0.0445147 0.0202173-0.0066327-0.0006077 0.0284154
           dz  0.0417446 0.0192985-0.3012309 0.0015013-0.0002593-0.0057537
  26 h     dx  0.0001502 0.0001028 0.0000778-0.0007037-0.0008249-0.0001187
           dy  0.0001180 0.0000593 0.0000730-0.0001458 0.0000794-0.0001840
           dz  0.0000121 0.0000485 0.0000374-0.0002784-0.0000549 0.0000458
  27 h     dx -0.0002244-0.0001207-0.0001582-0.0006327 0.0001446-0.0002228
           dy -0.0001118-0.0000824-0.0000348-0.0002875 0.0004089-0.0000592
           dz -0.0000119-0.0000159 0.0000231-0.0003778 0.0002458 0.0003408
  28 h     dx  0.0005786 0.0002993-0.0001797 0.0057230-0.0038719 0.0044731
           dy  0.0003036 0.0002498-0.0004962-0.0003431-0.0001899-0.0025689
           dz  0.0004100 0.0001386 0.0005019 0.0049061 0.0009884 0.0057312
  29 h     dx -0.0000099-0.0000202 0.0000192-0.0001412-0.0000530-0.0000422
           dy -0.0000025-0.0000182 0.0000455-0.0001256-0.0000441-0.0000244
           dz  0.0000049 0.0000032-0.0000169 0.0004083 0.0001656 0.0000530
  30 h     dx  0.0009732-0.0017391-0.0001033 0.0000899-0.0003954 0.0000263
           dy -0.0010891 0.0003668-0.0009348 0.0001166-0.0003595 0.0000475
           dz -0.0011672-0.0015621-0.0012357 0.0003016 0.0004355 0.0000159

   ATOM             13 n                          14 c 
                  dx        dy        dz        dx        dy        dz
  13 n     dx  0.2833231
           dy -0.0103560 0.8599408
           dz -0.1089978 0.0812963 0.2235182
  14 c     dx -0.1189733-0.1118093 0.0054224 0.4992028
           dy -0.1086012-0.4415708 0.0351575 0.0705021 0.7858739
           dz  0.0032702 0.0293133-0.1078153-0.1942247 0.0507052 0.3516239
  15 c     dx -0.0113735-0.0785217 0.0215310-0.2442376-0.0249961 0.1002454
           dy -0.0399772-0.0110536 0.0221551-0.0508845-0.1211029 0.0205592
           dz  0.0220910 0.0607374 0.0276216 0.0881969-0.0158066-0.1510893
  16 c     dx -0.0010528 0.0010745 0.0033878-0.0061959-0.0205485-0.0044159
           dy -0.0005211 0.0110808-0.0052687-0.0102012-0.0055625 0.0064083
           dz  0.0048112-0.0031292 0.0028557 0.0062686 0.0163758 0.0008880
  17 c     dx -0.0000071 0.0001221 0.0014540-0.0002868-0.0000020-0.0035728
           dy -0.0004822-0.0010720 0.0025291-0.0012514-0.0052192-0.0024911
           dz  0.0006565 0.0015742 0.0001816-0.0035022-0.0032967-0.0007546
  18 c     dx -0.0002072 0.0001297 0.0001237 0.0001052 0.0000898-0.0000713
           dy  0.0000248-0.0001916-0.0000641 0.0001535 0.0000785 0.0000080
           dz -0.0000477-0.0002110 0.0000565-0.0000454 0.0001560 0.0002098
  19 c     dx -0.0009460 0.0027668 0.0004282-0.0010573-0.0012957 0.0004290
           dy -0.0007706 0.0019981 0.0004973-0.0010988-0.0010803-0.0000562
           dz  0.0005022 0.0011141 0.0005016-0.0013711 0.0003618-0.0003510
  20 c     dx -0.0000929 0.0008543 0.0004362-0.0010252-0.0003612-0.0001114
           dy  0.0006638-0.0037441-0.0008383 0.0024421 0.0018670-0.0001818
           dz  0.0001795-0.0012857 0.0000214 0.0006057 0.0003697-0.0007275
  21 n     dx -0.0004970-0.0039798 0.0000258 0.0040041 0.0001846-0.0011911
           dy -0.0000369 0.0012939-0.0004586-0.0003838 0.0004755 0.0006516
           dz -0.0008851 0.0011817-0.0005671 0.0005524-0.0009714 0.0016423
  22 h     dx -0.0000518 0.0000098 0.0000751-0.0000196 0.0000210 0.0000297
           dy  0.0000281 0.0001101 0.0000066-0.0000455-0.0000666 0.0000314
           dz -0.0000129-0.0000377 0.0000202 0.0000439 0.0000287-0.0000137
  23 h     dx -0.0000589 0.0000874 0.0000166 0.0000449-0.0000083-0.0000381
           dy  0.0000066 0.0001867-0.0000611-0.0000572-0.0000076 0.0000935
           dz  0.0000103-0.0000646 0.0000013 0.0000629 0.0000263-0.0000414
  24 h     dx -0.0013528 0.0012292 0.0000618-0.0003412-0.0006541-0.0000461
           dy -0.0004826-0.0005756 0.0008933 0.0007689-0.0007053 0.0012384
           dz  0.0009027-0.0011149-0.0001436-0.0000957 0.0004861-0.0003981
  25 h     dx -0.0006275-0.0001468-0.0003725 0.0004583-0.0001639 0.0001365
           dy  0.0013929 0.0014887-0.0011947-0.0014725-0.0002560-0.0001898
           dz -0.0005942-0.0010738 0.0007655 0.0008801 0.0006382-0.0000203
  26 h     dx  0.0001988 0.0003832-0.0009556-0.0010905-0.0008432-0.0010954
           dy -0.0004989-0.0005908-0.0005312 0.0006424-0.0003899-0.0009823
           dz  0.0000229-0.0002236-0.0000575 0.0000657 0.0006447 0.0004873
  27 h     dx  0.0004299-0.0005718 0.0005765 0.0010003 0.0003726-0.0012054
           dy  0.0001967-0.0011481 0.0006259 0.0014368 0.0017112-0.0008344
           dz -0.0000564-0.0006609-0.0000058 0.0009592 0.0002968 0.0005431
  28 h     dx  0.0092077-0.0049124-0.0102676-0.1043271 0.0646174 0.0566334
           dy  0.0017520-0.0446202-0.0057213 0.0724504-0.1407974-0.0748736
           dz -0.0056027 0.0022878 0.0032442 0.0521133-0.0728463-0.0981678
  29 h     dx  0.0000208-0.0001136 0.0000421 0.0000395-0.0000578-0.0000431
           dy  0.0000773 0.0000524-0.0000592-0.0000825 0.0000784 0.0000946
           dz -0.0002582 0.0000413 0.0000968 0.0001374-0.0000400-0.0000639
  30 h     dx  0.0000800-0.0000142 0.0000008-0.0000209-0.0000280 0.0000026
           dy  0.0000007 0.0002464-0.0001475-0.0000918-0.0001511 0.0000860
           dz -0.0001213-0.0000176 0.0000891 0.0000292 0.0000421-0.0000100

   ATOM             15 c                          16 c 
                  dx        dy        dz        dx        dy        dz
  15 c     dx  0.5733543
           dy  0.0527303 0.5114300
           dz -0.2127200 0.0919275 0.3343068
  16 c     dx -0.1121862-0.0460223 0.0040752 0.3366580
           dy -0.0286676-0.1123945-0.0125330-0.0202010 0.5191300
           dz -0.0011287-0.0133255-0.0773760 0.0160201 0.0300022 0.5662764
  17 c     dx -0.0422954-0.0116284 0.0011119-0.1112510 0.0231198 0.0152404
           dy -0.0089896 0.0075429 0.0004041 0.0415396-0.1020434-0.0153288
           dz  0.0072760 0.0020311 0.0019971 0.0204318-0.0132217-0.0828070
  18 c     dx -0.0001462-0.0000417 0.0003245 0.0002249-0.0006961 0.0009253
           dy -0.0003529-0.0001492 0.0001161 0.0001210 0.0001810-0.0001278
           dz -0.0001381-0.0004134 0.0000658-0.0000804 0.0010371-0.0008421
  19 c     dx  0.0005054 0.0014317 0.0001895-0.0002166-0.0014602-0.0003479
           dy  0.0004769 0.0008361-0.0010563 0.0013920-0.0030319 0.0016564
           dz -0.0008393 0.0000077-0.0006326-0.0003056-0.0025312 0.0006140
  20 c     dx -0.0014737-0.0017191-0.0016976 0.0023863-0.0029391-0.0037693
           dy  0.0002094-0.0006545 0.0007333-0.0023501 0.0074274-0.0050667
           dz -0.0014655-0.0001529 0.0007631 0.0020775-0.0046597 0.0039147
  21 n     dx -0.0019126 0.0089481 0.0042113-0.0253807 0.0030292-0.0076621
           dy  0.0008571-0.0029333 0.0004297 0.0094777 0.0077950 0.0098396
           dz  0.0036964 0.0006348-0.0008289-0.0051407 0.0058708-0.0017013
  22 h     dx -0.0000101-0.0000478 0.0000023-0.0000173 0.0000074 0.0000470
           dy  0.0002088 0.0000207-0.0000975 0.0000132-0.0002307 0.0002268
           dz -0.0000610 0.0000034 0.0000047-0.0000058 0.0000793-0.0000362
  23 h     dx -0.0000459 0.0000633 0.0000006-0.0000149-0.0000197 0.0000321
           dy  0.0000666-0.0001200-0.0001586-0.0000021 0.0001814-0.0001378
           dz -0.0000176 0.0000713 0.0000310 0.0000434-0.0000695 0.0000778
  24 h     dx  0.0001696 0.0003696-0.0001814-0.0000160-0.0000536-0.0000000
           dy  0.0000649-0.0002877 0.0000886-0.0001138 0.0001348-0.0001750
           dz -0.0001921 0.0002960 0.0000428 0.0000092 0.0000195 0.0000673
  25 h     dx -0.0002586 0.0002592-0.0000944-0.0000346 0.0000682-0.0000452
           dy  0.0007347-0.0000183 0.0001697 0.0001306-0.0002153 0.0001361
           dz -0.0004486 0.0001121 0.0002623-0.0000641 0.0001264-0.0001026
  26 h     dx  0.0049233-0.0187851 0.0166291-0.0455215 0.0316312-0.0284676
           dy  0.0007175-0.0148710 0.0117197 0.0314491-0.1755476 0.1252750
           dz  0.0026548-0.0022230 0.0032570-0.0277363 0.1205024-0.1536747
  27 h     dx  0.0013131-0.0084593-0.0187672-0.0460142-0.0050898-0.0084835
           dy -0.0000759-0.0097362-0.0161321-0.0055463-0.0821694-0.0999030
           dz -0.0000599 0.0015716 0.0023970-0.0084955-0.0983066-0.2660925
  28 h     dx -0.0076501 0.0197216 0.0160222 0.0016866 0.0004815-0.0009715
           dy -0.0003146 0.0089181 0.0008226 0.0010889 0.0000969 0.0002072
           dz  0.0154813-0.0149874-0.0068788-0.0011491 0.0014616-0.0016751
  29 h     dx  0.0000256 0.0002742-0.0001184 0.0000604-0.0001036-0.0003167
           dy  0.0002544-0.0001345-0.0001268-0.0000184 0.0007417 0.0003473
           dz -0.0003951 0.0001472 0.0003396-0.0000646-0.0004794 0.0005299
  30 h     dx  0.0001642 0.0000375 0.0000144-0.0000004 0.0000097 0.0000239
           dy  0.0000065-0.0001226-0.0000054 0.0000122-0.0000332-0.0000319
           dz -0.0000070-0.0000608 0.0000830-0.0000041-0.0000037-0.0000087

   ATOM             17 c                          18 c 
                  dx        dy        dz        dx        dy        dz
  17 c     dx  0.7367658
           dy  0.0028080 0.4916023
           dz  0.1384241 0.1367729 0.3065058
  18 c     dx -0.0056508-0.0013832-0.0022168 0.4931429
           dy  0.0014876 0.0006997 0.0001041-0.0614888 0.3628007
           dz  0.0015609-0.0004867 0.0000952 0.0354715 0.0216044 0.5659310
  19 c     dx -0.0240668-0.0207289-0.0114049-0.0809511 0.0248282-0.0171655
           dy -0.0374257-0.0163964-0.0179176 0.0077946-0.1389766 0.0223099
           dz -0.0194007-0.0100133-0.0213056-0.0151107 0.0170965-0.0827685
  20 c     dx -0.0842559 0.0234263-0.0275284 0.0078731 0.0151083 0.0077132
           dy  0.0577147 0.0050609 0.0269333 0.0039128-0.0211136-0.0083192
           dz -0.0179122 0.0109742 0.0146727 0.0068654 0.0055702 0.0024075
  21 n     dx -0.3811596-0.0216842-0.0986333 0.0076797-0.0071973-0.0036081
           dy -0.0149771-0.0734581-0.0101037-0.0059792 0.0015306-0.0021836
           dz -0.1094394-0.0170664-0.1294936-0.0051112 0.0001326 0.0037174
  22 h     dx  0.0002299-0.0001687 0.0001048-0.0729738-0.0014274-0.0894551
           dy -0.0005010-0.0002990 0.0003994-0.0014731-0.0453087 0.0037106
           dz  0.0005324 0.0003626 0.0001801-0.0880257 0.0028719-0.2759995
  23 h     dx  0.0003026-0.0004293-0.0000036-0.1652783 0.0663825 0.1107352
           dy  0.0002693-0.0007725 0.0003809 0.0651683-0.0726184-0.0583423
           dz  0.0000187 0.0004734-0.0001142 0.1065206-0.0566458-0.1361725
  24 h     dx -0.0000458 0.0000763 0.0000297 0.0001370-0.0001169-0.0001126
           dy  0.0001438-0.0001948-0.0001164-0.0000840 0.0000356 0.0000533
           dz -0.0000728 0.0000887 0.0000590-0.0000639 0.0000114 0.0000677
  25 h     dx -0.0000329 0.0000627 0.0000367-0.0001819 0.0001237 0.0001381
           dy -0.0001712 0.0000482 0.0000003 0.0001016-0.0001025-0.0001388
           dz  0.0000361-0.0000178-0.0000383 0.0000527-0.0000199 0.0000035
  26 h     dx -0.0040124 0.0206556-0.0192761 0.0001697-0.0000268-0.0001571
           dy  0.0045426-0.0086534 0.0071648-0.0000455-0.0000301 0.0001212
           dz  0.0006139-0.0064127 0.0071819 0.0000222 0.0000048 0.0000526
  27 h     dx  0.0036991 0.0107605 0.0238685-0.0002481 0.0000269 0.0001344
           dy -0.0004548-0.0068284-0.0118292 0.0000886-0.0000059-0.0000487
           dz -0.0011017-0.0011644-0.0031671 0.0001289-0.0000305-0.0000896
  28 h     dx -0.0001198 0.0000088 0.0000257-0.0000359-0.0000099-0.0000496
           dy  0.0005603-0.0002532 0.0000076 0.0000111 0.0000012-0.0000096
           dz  0.0001034-0.0004130 0.0001262-0.0000022 0.0000021-0.0000050
  29 h     dx  0.0029189 0.0006878-0.0046633-0.0001385 0.0001222 0.0006078
           dy  0.0048310 0.0009644-0.0015688 0.0009870 0.0020124-0.0001701
           dz -0.0026915-0.0036338 0.0073810 0.0016079-0.0006229-0.0017623
  30 h     dx  0.0000111 0.0000284-0.0000077 0.0006289-0.0001812 0.0005196
           dy -0.0000470-0.0002683 0.0001276-0.0002995 0.0002892 0.0001621
           dz -0.0000462-0.0003616 0.0001276-0.0003291 0.0003583 0.0004140

   ATOM             19 c                          20 c 
                  dx        dy        dz        dx        dy        dz
  19 c     dx  0.4897296
           dy  0.0449513 0.6528844
           dz  0.1752806 0.0615127 0.2778311
  20 c     dx -0.1199401-0.0604585-0.0449042 0.6625423
           dy -0.0284687-0.2792807-0.0373343-0.1206868 0.6806534
           dz -0.0259585-0.0649735-0.1168242 0.1652513 0.0670745 0.2934668
  21 n     dx  0.0407969 0.0574069 0.0290705-0.2683843 0.1973671-0.0191295
           dy  0.0118090-0.0752153-0.0247724 0.1952622-0.2921272 0.0224683
           dz  0.0058394-0.0062387 0.0398395-0.0144473 0.0176700-0.1080265
  22 h     dx -0.0035093 0.0015728-0.0052095 0.0007600-0.0013262 0.0001839
           dy  0.0116839 0.0006722 0.0243901-0.0002563 0.0019785 0.0011249
           dz -0.0012193-0.0003387-0.0032246-0.0001632-0.0013005 0.0005158
  23 h     dx -0.0024365 0.0037919 0.0013586-0.0004682-0.0010318-0.0000423
           dy  0.0210649-0.0119750-0.0170943 0.0006332-0.0006673 0.0017157
           dz -0.0082950 0.0023727 0.0077034 0.0004130-0.0000733 0.0001583
  24 h     dx -0.0001585-0.0000362-0.0001283 0.0000354 0.0000836 0.0000837
           dy  0.0000179 0.0000090 0.0000834 0.0000113-0.0000165-0.0000204
           dz  0.0000688-0.0000169 0.0000203-0.0000120-0.0000739-0.0000224
  25 h     dx -0.0000587-0.0001967-0.0000507-0.0000445 0.0000615-0.0000139
           dy  0.0000786 0.0000841 0.0000269-0.0000059-0.0000617-0.0000294
           dz  0.0000130 0.0000330-0.0000088 0.0000065-0.0000414 0.0000064
  26 h     dx -0.0003537 0.0002754 0.0001128-0.0006298-0.0003128 0.0012117
           dy  0.0000214 0.0002655 0.0000652 0.0009145-0.0005523-0.0005606
           dz  0.0003682-0.0000350 0.0000145 0.0002701-0.0001175-0.0002670
  27 h     dx -0.0004915-0.0005234 0.0003401 0.0006150 0.0012671-0.0005660
           dy -0.0000407 0.0003069-0.0000059 0.0000958-0.0006511 0.0001335
           dz  0.0003557 0.0003422 0.0001720 0.0000889-0.0009610 0.0002218
  28 h     dx -0.0000757 0.0001166-0.0000470-0.0000623 0.0001245 0.0000314
           dy  0.0000803 0.0001187-0.0000214 0.0000579-0.0001187-0.0000218
           dz -0.0000688 0.0000274 0.0000842 0.0000098-0.0000245 0.0000048
  29 h     dx -0.0039872-0.0038885-0.0064748-0.1946841-0.0446306-0.0827413
           dy -0.0266925-0.0004947-0.0152440-0.0361514-0.0615299-0.0200248
           dz -0.0148790-0.0074922-0.0010998-0.0807168-0.0168536-0.0871493
  30 h     dx -0.0003146-0.0000646-0.0000180 0.0001309 0.0000487 0.0000929
           dy  0.0000042 0.0003195 0.0001646-0.0000198-0.0000327-0.0000197
           dz  0.0003433 0.0002694 0.0002269-0.0001046-0.0001031-0.0000362

   ATOM             21 n                          22 h 
                  dx        dy        dz        dx        dy        dz
  21 n     dx  0.7351506
           dy -0.2069117 0.4303175
           dz  0.1651880 0.0093324 0.2006928
  22 h     dx -0.0006150 0.0004505 0.0001826 0.0804791
           dy  0.0009779-0.0002146-0.0007709-0.0015168 0.0461449
           dz -0.0007837 0.0004137 0.0000986 0.0952938-0.0033494 0.2935604
  23 h     dx -0.0003608 0.0007954-0.0001663 0.0093494-0.0044346-0.0067584
           dy -0.0000901 0.0002245 0.0010295-0.0001240 0.0008125 0.0000888
           dz -0.0001823 0.0000051-0.0003165 0.0214082-0.0110168-0.0161417
  24 h     dx  0.0000836-0.0001008-0.0000386-0.0000353-0.0000674-0.0000185
           dy -0.0001786 0.0000492 0.0000086 0.0000281 0.0000391 0.0000136
           dz -0.0000226 0.0000132-0.0000052 0.0000139 0.0000093 0.0000033
  25 h     dx  0.0000518-0.0000915-0.0000214-0.0000067-0.0000080 0.0000062
           dy -0.0000741-0.0000053-0.0000605-0.0000145 0.0000306-0.0000030
           dz -0.0000098 0.0000371 0.0000259 0.0000012-0.0000010 0.0000025
  26 h     dx -0.0010795 0.0004905 0.0006839 0.0000350 0.0001021-0.0000246
           dy -0.0016891-0.0009652-0.0002647-0.0000147-0.0000333 0.0000024
           dz -0.0010323-0.0000488-0.0000114-0.0000053-0.0000292 0.0000027
  27 h     dx  0.0004191-0.0021208-0.0003605 0.0000108 0.0000195-0.0000047
           dy -0.0005761 0.0008996 0.0008989 0.0000247 0.0000121-0.0000046
           dz -0.0005170 0.0010610 0.0003230-0.0000055 0.0000030 0.0000029
  28 h     dx  0.0002188-0.0001079-0.0001241-0.0000062 0.0000164-0.0000003
           dy -0.0000470 0.0001567 0.0000559 0.0000093 0.0000165 0.0000012
           dz  0.0000561 0.0000997 0.0000507-0.0000010-0.0000147 0.0000094
  29 h     dx -0.0301873 0.0202103-0.0040209 0.0000334-0.0003259 0.0002800
           dy  0.0279743-0.0013766 0.0122409 0.0001380-0.0001095 0.0004000
           dz -0.0010487 0.0043748-0.0006075-0.0001326-0.0000257-0.0001448
  30 h     dx  0.0000638-0.0001112-0.0000471 0.0000277 0.0000370-0.0000460
           dy  0.0001239 0.0000643-0.0000058 0.0001053 0.0000747-0.0000073
           dz  0.0001372 0.0002134 0.0000418 0.0001394 0.0000684 0.0000124

   ATOM             23 h                          24 h 
                  dx        dy        dz        dx        dy        dz
  23 h     dx  0.1802054
           dy -0.0712942 0.0815108
           dz -0.1168110 0.0613527 0.1441478
  24 h     dx  0.0000083-0.0000378 0.0000022 0.1709578
           dy  0.0000032 0.0000222 0.0000002 0.1043216 0.1298684
           dz -0.0000016 0.0000180-0.0000047 0.0884129 0.0724556 0.1054074
  25 h     dx -0.0000547-0.0000548-0.0000106 0.0044615 0.0021156-0.0216285
           dy  0.0000664 0.0000616 0.0000033 0.0030403 0.0024614-0.0176925
           dz -0.0000013 0.0000068-0.0000029 0.0023231 0.0013147-0.0128599
  26 h     dx  0.0000000 0.0000334-0.0000200 0.0000340-0.0000179 0.0000027
           dy -0.0000082 0.0000246-0.0000104 0.0000263-0.0000052-0.0000022
           dz -0.0000014-0.0000085 0.0000012 0.0000098-0.0000070-0.0000027
  27 h     dx -0.0000006 0.0000802-0.0000235 0.0000289-0.0001087 0.0000340
           dy -0.0000043-0.0000029 0.0000095 0.0000092-0.0000190 0.0000106
           dz -0.0000012-0.0000407 0.0000104 0.0000040 0.0000041-0.0000062
  28 h     dx  0.0000013 0.0000003 0.0000029-0.0000156 0.0000903-0.0000282
           dy  0.0000098 0.0000064-0.0000012 0.0000098-0.0000137-0.0000412
           dz  0.0000108 0.0000034-0.0000009-0.0000583 0.0001671-0.0000142
  29 h     dx -0.0001449 0.0000831 0.0000462 0.0000006-0.0000100-0.0000005
           dy  0.0000409 0.0000586-0.0000522-0.0000006 0.0000035-0.0000035
           dz  0.0000940-0.0005166 0.0001012-0.0000019-0.0000122 0.0000026
  30 h     dx  0.0000137-0.0000089 0.0000458-0.0000544-0.0001078-0.0000398
           dy -0.0000752-0.0000696 0.0000159-0.0002522 0.0000037 0.0000150
           dz -0.0001142-0.0001274 0.0000131-0.0004443 0.0001989 0.0000664

   ATOM             25 h                          26 h 
                  dx        dy        dz        dx        dy        dz
  25 h     dx  0.0534187
           dy  0.0029045 0.0460006
           dz -0.0463766-0.0216255 0.3207886
  26 h     dx  0.0000381-0.0000630 0.0000361 0.0515705
           dy  0.0000251-0.0000327 0.0000177-0.0331649 0.1918279
           dz -0.0000054-0.0000063 0.0000017 0.0294541-0.1325567 0.1630257
  27 h     dx  0.0000313-0.0000082-0.0000043 0.0006305-0.0021580-0.0047394
           dy -0.0000140-0.0000081-0.0000016 0.0005168 0.0107834 0.0218937
           dz  0.0000013 0.0000021 0.0000024-0.0004233-0.0082833-0.0173709
  28 h     dx  0.0000033-0.0000869 0.0000388 0.0001508 0.0001493-0.0000041
           dy -0.0000233 0.0000708 0.0000311 0.0000884-0.0001086 0.0000680
           dz -0.0000018-0.0001671 0.0000409 0.0003833 0.0003267-0.0000291
  29 h     dx -0.0000003-0.0000118 0.0000040-0.0000532 0.0000075-0.0000235
           dy -0.0000221 0.0000119-0.0000010-0.0000234 0.0000288 0.0000356
           dz -0.0000085 0.0000077 0.0000080 0.0001854-0.0000424-0.0000186
  30 h     dx -0.0000079-0.0000554 0.0002319 0.0000078-0.0000041-0.0000028
           dy  0.0003383-0.0001660-0.0004431 0.0000029-0.0000003 0.0000034
           dz -0.0000304 0.0001350-0.0000811-0.0000115 0.0000096 0.0000005

   ATOM             27 h                          28 h 
                  dx        dy        dz        dx        dy        dz
  27 h     dx  0.0454022
           dy  0.0051975 0.0917711
           dz  0.0092619 0.1058420 0.2829538
  28 h     dx -0.0002453-0.0003040-0.0004227 0.0991776
           dy  0.0002454 0.0000810-0.0000161-0.0743682 0.1767073
           dz  0.0000995-0.0000582-0.0000556-0.0700886 0.0827616 0.0944469
  29 h     dx  0.0000992-0.0000278 0.0000134 0.0000018-0.0000026 0.0000148
           dy -0.0000048-0.0000160-0.0000349 0.0000020-0.0000035 0.0000043
           dz -0.0001499 0.0000996 0.0000325-0.0000066 0.0000187 0.0000002
  30 h     dx  0.0000239 0.0000079-0.0000057-0.0000073 0.0000018-0.0000126
           dy  0.0000005-0.0000109 0.0000019-0.0000086-0.0000003-0.0000119
           dz  0.0000101 0.0000075 0.0000066-0.0000091 0.0000106 0.0000054

   ATOM             29 h                          30 h 
                  dx        dy        dz        dx        dy        dz
  29 h     dx  0.2263617
           dy  0.0298997 0.0654351
           dz  0.0993285 0.0260785 0.0785812
  30 h     dx -0.0000018-0.0000010-0.0000026 0.0775555
           dy  0.0000087-0.0000036-0.0000151 0.0433040 0.1601294
           dz  0.0000177-0.0000029 0.0000040-0.0372408-0.1200164 0.1331135
 

   *** projected hessian written onto $hessian (projected), file=<hessian> ***

 dipole moment in principle axis system (a.u.) :
     0.0001338416     0.0017079960    -0.1492114987
 norm :  0.149221333982007     

 rotational constants b for rotations around axis of inertia
 and optical intensities for (1 <-- 0) transition

   b   :     0.0159377622     0.0159345998     0.0086499887   (cm**(-1))
   b   :         477.8021         477.7073         259.3201     (MHz)
  int. :     0.0000000179     0.0000029173     0.0222640714     (a.u.)

   x   :     0.7059757764    -0.7037102702     0.0799378430
   y   :     0.6952699377     0.7101208934     0.1110316644
   z   :    -0.1348996550    -0.0228072864     0.9905967448

   ***  normal modes written onto $vibrational normal modes, file=<vib_normal_modes>  ***

 keyword $vibrational reduced masses missing in file <control>


   ***  vibrational spectroscopic data written onto$vibrational spectrum   
        file=<vibspectrum>  ***

          ---------------------------------------------------
          NORMAL MODES and VIBRATIONAL FREQUENCIES (cm**(-1))
          ---------------------------------------------------

 imaginary wave numbers indicate a negative curvature of the energy surface.
 zero frequency modes have no physical meaning except being generators of
 translations and rotations. each vibrational normal mode - given in terms of
 cartesian displacement vectors of all atoms - has been normalized to unity.
 to obtain mass-weigthed normal coordinates in a.u. divide the tabulated
 modes by sqrt(reduced mass * 1822.88853).
 band intensities or cross sections refer to independent non-degenerate normal
 modes, that is, the intensities of degenerate modes have yet to be added.
 dDIP/dQ is the normal mode derivative of the dipole moment.


       mode               1        2        3        4        5        6

     frequency           0.00     0.00     0.00     0.00     0.00     0.00

     symmetry                                                             

        IR                -        -        -        -        -        - 
|dDIP/dQ|   (a.u.)     0.0000   0.0000   0.0000   0.0000   0.0000   0.0000
intensity (km/mol)       0.00     0.00     0.00     0.00     0.00     0.00
intensity (  %   )       0.00     0.00     0.00     0.00     0.00     0.00
 
       RAMAN              -        -        -        -        -        - 
 
  1   c           x   0.00106 -0.05192 -0.07563  0.17003 -0.05672 -0.02869
                  y  -0.04330 -0.04052  0.16419  0.03976 -0.01338  0.05697
                  z   0.17563  0.07034  0.05404  0.01283 -0.01344 -0.05926
  2   c           x  -0.00193 -0.05307 -0.05677  0.12517 -0.10690 -0.01591
                  y  -0.05030 -0.04163  0.18248  0.00227 -0.05322  0.06269
                  z   0.10131  0.06740  0.10318 -0.00659 -0.00107 -0.13425
  3   c           x  -0.00064 -0.04771 -0.07641  0.16599 -0.06896 -0.01818
                  y  -0.05131 -0.03286  0.14118  0.09869  0.04551  0.04345
                  z   0.14905  0.11953  0.01540  0.05629 -0.04546  0.01886
  4   c           x  -0.00499 -0.04608 -0.05680  0.11535 -0.13085  0.00260
                  y  -0.06303 -0.02720  0.13483  0.12160  0.06671  0.03614
                  z   0.04704  0.16740  0.02476  0.08171 -0.06613  0.02434
  5   c           x  -0.00790 -0.04720 -0.03847  0.07175 -0.17963  0.01502
                  y  -0.06984 -0.02828  0.15262  0.08512  0.02795  0.04171
                  z  -0.02521  0.16451  0.07255  0.06281 -0.05409 -0.04860
  6   c           x  -0.00615 -0.05152 -0.03766  0.07588 -0.16709  0.00424
                  y  -0.06164 -0.03615  0.17629  0.02453 -0.03261  0.05560
                  z   0.00207  0.11394  0.11231  0.01812 -0.02117 -0.12895
  7   c           x   0.00778 -0.07166 -0.06518  0.17220 -0.01886 -0.07222
                  y   0.01008 -0.04924  0.10922  0.12984  0.08953  0.05194
                  z   0.19563  0.13070 -0.02583  0.07782 -0.05998  0.08534
  8   n           x   0.01603 -0.09221 -0.06113  0.19131  0.04018 -0.12330
                  y   0.06249 -0.06781  0.10450  0.10415  0.07347  0.06949
                  z   0.27185  0.09198 -0.02951  0.05586 -0.04239  0.07506
  9   c           x   0.01759 -0.09557 -0.06159  0.19721  0.05307 -0.13260
                  y   0.06900 -0.07457  0.12582  0.05018  0.01937  0.08167
                  z   0.29945  0.04582  0.00511  0.01567 -0.01271  0.00422
 10   c           x   0.01091 -0.07880 -0.06520  0.18236  0.00575 -0.09116
                  y   0.02338 -0.06359  0.15542  0.01348 -0.02724  0.07804
                  z   0.25019  0.03272  0.05015 -0.00838  0.00358 -0.06877
 11   c           x   0.01333 -0.09269 -0.04540  0.15324 -0.00328 -0.11139
                  y   0.04907 -0.07714  0.17500 -0.04987 -0.08719  0.09664
                  z   0.23238 -0.00413  0.10236 -0.04930  0.03276 -0.16222
 12   c           x   0.00614 -0.08175 -0.03249  0.10592 -0.07797 -0.07155
                  y   0.01398 -0.06612  0.18509 -0.04871 -0.09290  0.08805
                  z   0.12490  0.02864  0.13200 -0.04024  0.02380 -0.19335
 13   n           x   0.00817 -0.10142  0.00311  0.04605 -0.11248 -0.09383
                  y   0.05019 -0.07994  0.18669 -0.07774 -0.11557  0.10240
                  z   0.05270  0.03395  0.17059 -0.05092  0.02989 -0.24915
 14   c           x   0.00412 -0.09952  0.02048  0.00054 -0.16887 -0.07423
                  y   0.03850 -0.07464  0.18207 -0.05886 -0.09849  0.09589
                  z  -0.03938  0.07581  0.18054 -0.02932  0.01220 -0.24699
 15   c           x  -0.00254 -0.07749  0.00428  0.00928 -0.19813 -0.02943
                  y  -0.01121 -0.05448  0.17401 -0.00543 -0.05343  0.07352
                  z  -0.07166  0.12008  0.15091  0.00794 -0.01547 -0.18442
 16   c           x  -0.00399 -0.08447  0.02862 -0.04083 -0.24400 -0.02750
                  y  -0.00066 -0.05389  0.15177  0.03874 -0.00604  0.06733
                  z  -0.16212  0.18068  0.13890  0.04869 -0.04696 -0.14164
 17   c           x  -0.00514 -0.07133  0.00374  0.00190 -0.21776 -0.01355
                  y  -0.02242 -0.04211  0.13373  0.09576  0.04818  0.05091
                  z  -0.11631  0.20442  0.08409  0.08266 -0.07049 -0.04964
 18   c           x   0.00705 -0.07795 -0.04638  0.13479 -0.05115 -0.07315
                  y   0.02174 -0.04808  0.08218  0.18436  0.14776  0.04397
                  z   0.12566  0.19207 -0.05134  0.12388 -0.09485  0.14870
 19   c           x   0.00025 -0.06784 -0.03362  0.08903 -0.12256 -0.03562
                  y  -0.01191 -0.03897  0.09899  0.16891  0.12530  0.03900
                  z   0.02582  0.21086 -0.01079  0.12062 -0.09474  0.09548
 20   c           x   0.00097 -0.08508  0.00333  0.02239 -0.16928 -0.05035
                  y   0.01917 -0.04776  0.08529  0.17895  0.14171  0.04442
                  z  -0.07101  0.25104  0.00398  0.13947 -0.11055  0.08970
 21   n           x  -0.00147 -0.08677  0.02046 -0.01744 -0.21264 -0.04045
                  y   0.01450 -0.04939  0.10184  0.14384  0.10477  0.05023
                  z  -0.13550  0.24678  0.04852  0.12091 -0.09858  0.02107
 22   h           x   0.01578 -0.11119 -0.01486  0.10415 -0.02734 -0.13479
                  y   0.09829 -0.07111  0.05511  0.19357  0.17225  0.06039
                  z   0.12375  0.20445 -0.06402  0.13589 -0.10358  0.17281
 23   h           x   0.00234 -0.05522 -0.07472  0.17245 -0.04800 -0.03665
                  y  -0.02542 -0.03007  0.08002  0.22234  0.17746  0.02525
                  z   0.14928  0.20781 -0.08352  0.14491 -0.10952  0.20345
 24   h           x   0.01031 -0.07407 -0.07315  0.19525  0.01230 -0.08530
                  y   0.00936 -0.06725  0.19912 -0.07801 -0.12387  0.09272
                  z   0.28446 -0.04326  0.11402 -0.07701  0.05397 -0.19571
 25   h           x   0.02266 -0.12749 -0.01342  0.12367  0.02459 -0.17680
                  y   0.12835 -0.10322  0.15795 -0.06578 -0.08793  0.11866
                  z   0.24022 -0.01225  0.10662 -0.05571  0.03757 -0.17193
 26   h           x  -0.01188 -0.06351  0.02160 -0.05318 -0.29590  0.02216
                  y  -0.05432 -0.03739  0.16896  0.03641 -0.01898  0.05500
                  z  -0.22080  0.19410  0.16009  0.04915 -0.04861 -0.16799
 27   h           x   0.00350 -0.11834  0.06831 -0.09067 -0.24139 -0.08400
                  y   0.07333 -0.07741  0.13183  0.03322  0.00283  0.08604
                  z  -0.19584  0.19277  0.14618  0.05334 -0.05108 -0.14765
 28   h           x   0.00698 -0.11983  0.05305 -0.05098 -0.19251 -0.10073
                  y   0.07789 -0.08917  0.18136 -0.08475 -0.11731  0.11038
                  z  -0.09551  0.07840  0.21226 -0.03916  0.01805 -0.29357
 29   h           x   0.00484 -0.10188  0.02213 -0.00018 -0.16548 -0.07910
                  y   0.05832 -0.05664  0.05719  0.21671  0.18814  0.04631
[...]
                  z  -0.02609  0.03512 -0.02391 -0.16515 -0.17698 -0.00144
 13   n           x  -0.04671  0.07089 -0.04149 -0.07544 -0.07933  0.00155
                  y  -0.13140  0.14363  0.06103  0.02458  0.15162 -0.04865
                  z   0.01155 -0.02746  0.03864  0.05962  0.07653 -0.00818
 14   c           x   0.13848 -0.14824  0.06370  0.15779  0.16646  0.00466
                  y   0.20172 -0.26863  0.04240  0.14639  0.07884  0.03786
                  z  -0.06169  0.05794 -0.04063 -0.08398 -0.10047  0.00449
 15   c           x  -0.10518  0.05285 -0.03235 -0.18057 -0.26654  0.01738
                  y   0.02639  0.05032 -0.06213 -0.02477 -0.02929  0.00726
                  z   0.06624 -0.01014 -0.00139  0.10799  0.15671 -0.00300
 16   c           x   0.01540  0.02528  0.02093  0.04620  0.02052  0.02739
                  y   0.01323 -0.01016  0.01123  0.01015  0.00823 -0.00063
                  z   0.01742 -0.00658  0.01726 -0.00291 -0.02459  0.00663
 17   c           x  -0.01106 -0.15494 -0.06727 -0.15739  0.16024 -0.25852
                  y  -0.00041  0.00142 -0.00542 -0.13136  0.08997 -0.11555
                  z  -0.01050 -0.04079 -0.02078 -0.11276  0.08621 -0.13288
 18   c           x  -0.00416  0.01019  0.01880 -0.01246  0.01542  0.00320
                  y  -0.02094 -0.01148  0.02026 -0.03982  0.03741 -0.01561
                  z   0.01910  0.02398 -0.00369  0.00901 -0.00233 -0.02173
 19   c           x   0.07862 -0.03017  0.02378  0.05838 -0.06144  0.10014
                  y   0.05728  0.09906  0.05299  0.15849 -0.14277  0.25898
                  z   0.04399 -0.00817  0.01271  0.05340 -0.05492  0.08304
 20   c           x   0.03775  0.09367  0.15678  0.04584 -0.02460 -0.02647
                  y  -0.10889 -0.23400 -0.23740 -0.19508  0.14416 -0.17602
                  z  -0.01027 -0.02077  0.00932 -0.02786  0.02293 -0.05329
 21   n           x  -0.05263  0.01286 -0.13492  0.04386 -0.05416  0.17467
                  y   0.04615  0.09144  0.13145  0.06133 -0.03105  0.00345
                  z  -0.01058  0.02847 -0.02222  0.03639 -0.02957  0.07049
 22   h           x   0.05053  0.09498 -0.04678  0.09578 -0.05053 -0.09753
                  y   0.08091 -0.02199 -0.09303  0.13404 -0.13154  0.02630
                  z  -0.00108 -0.00719  0.02237 -0.03297  0.02309  0.02316
 23   h           x  -0.00839  0.02303  0.01287  0.01646 -0.00005  0.01098
                  y   0.01111 -0.03031  0.00129  0.00195 -0.00302 -0.00917
                  z  -0.00452  0.05508  0.00234  0.02118  0.00377 -0.00799
 24   h           x  -0.00168  0.01372  0.03583 -0.00533  0.01373  0.00505
                  y   0.00422 -0.01302 -0.00163 -0.00857  0.00647  0.00441
                  z   0.01699 -0.02088 -0.04840  0.02460 -0.00016  0.00643
 25   h           x   0.01690 -0.01306  0.09339  0.07202 -0.02580 -0.10753
                  y  -0.10598  0.09679 -0.00673 -0.17016 -0.09999  0.05017
                  z   0.02090 -0.00014 -0.00638  0.00105 -0.00305 -0.00261
 26   h           x  -0.00322 -0.00810  0.02565 -0.00484  0.00006 -0.00260
                  y  -0.00038 -0.03061  0.02909  0.01652  0.00944 -0.00935
                  z   0.00889 -0.02374  0.03905  0.02121 -0.01147  0.00063
 27   h           x  -0.05840 -0.10301 -0.07416 -0.17989 -0.02351 -0.12299
                  y   0.02565 -0.04456  0.07695  0.00877 -0.09385  0.02815
                  z   0.01537  0.01084 -0.00814  0.00390  0.02682 -0.00503
 28   h           x  -0.14326  0.27203 -0.14200 -0.19434 -0.21327 -0.01116
                  y  -0.05891  0.15435 -0.18355 -0.20838 -0.29358  0.03213
                  z   0.02272 -0.11999  0.08016  0.07562  0.07409 -0.00225
 29   h           x   0.01975 -0.07585  0.05162 -0.06858  0.05373 -0.14997
                  y   0.01071  0.38215  0.19841  0.23819 -0.19201  0.31011
                  z  -0.03109  0.04388  0.01667  0.01112  0.00172 -0.00087
 30   h           x   0.14330 -0.03188 -0.38263  0.23829 -0.23411 -0.33169
                  y  -0.06890 -0.07409  0.14990 -0.05761  0.00431  0.05127
                  z   0.00071  0.00866 -0.08054  0.01929  0.00373 -0.00146

reduced mass(g/mol)    11.226    8.708    8.651    8.692    9.121    9.118


       mode              79       80       81       82       83       84

     frequency        1693.76  1722.03  1722.22  2823.95  2824.14  2825.08

     symmetry            a        a        a        a        a        a   

        IR               YES      YES      YES      YES      YES      YES
|dDIP/dQ|   (a.u.)     0.0003   0.0056   0.0056   0.0045   0.0035   0.0036
intensity (km/mol)       0.15    56.43    56.34    35.69    21.72    22.98
intensity (  %   )       0.26   100.00    99.84    63.25    38.49    40.73
 
       RAMAN             YES      YES      YES      YES      YES      YES
 
  1   c           x   0.10944  0.24713  0.15675 -0.00002  0.00008  0.00038
                  y   0.11690  0.10637  0.00201 -0.00009  0.00002  0.00094
                  z  -0.08908 -0.10402 -0.03644  0.00021 -0.00020 -0.00027
  2   c           x   0.02349 -0.11257 -0.00246 -0.00022  0.00010 -0.00011
                  y   0.07076 -0.20787  0.14293  0.00023 -0.00016  0.00003
                  z  -0.01093  0.07105 -0.01668 -0.00010  0.00014 -0.00014
  3   c           x  -0.07217 -0.23072 -0.15218 -0.00005 -0.00001 -0.00016
                  y  -0.01486 -0.06754  0.02977  0.00004  0.00004 -0.00037
                  z   0.00671  0.00587 -0.02462 -0.00000  0.00012 -0.00012
  4   c           x  -0.17133  0.04152  0.24613  0.00044  0.00095 -0.00003
                  y   0.03107  0.03816 -0.20110  0.00001  0.00017 -0.00001
                  z  -0.05663  0.00767  0.07703  0.00009  0.00006  0.00024
  5   c           x   0.04994 -0.04681 -0.17106 -0.00014 -0.00033  0.00006
                  y  -0.05541 -0.04573  0.22096  0.00002 -0.00006 -0.00004
                  z   0.00134 -0.01008  0.02339 -0.00002  0.00022 -0.00010
  6   c           x   0.04475  0.08128  0.01106  0.00054 -0.00030  0.00017
                  y  -0.17042  0.26515 -0.17453 -0.00078  0.00033 -0.00009
                  z  -0.05152  0.02056 -0.03167 -0.00023 -0.00014  0.00006
  7   c           x   0.09374  0.12368  0.07956 -0.00012  0.00019  0.00235
                  y   0.16210  0.17639  0.10155 -0.00019  0.00010  0.00204
                  z  -0.10065 -0.10057 -0.05628  0.00008  0.00001 -0.00063
  8   n           x  -0.27189 -0.30871 -0.18218  0.00011 -0.00036 -0.00319
                  y  -0.16627 -0.18158 -0.11023  0.00003 -0.00008 -0.00051
                  z   0.11833  0.12463  0.07499  0.00001 -0.00003 -0.00048
  9   c           x   0.26845  0.32622  0.19619  0.00055 -0.00243 -0.01906
                  y   0.05078  0.03692  0.02159  0.00182 -0.00758 -0.06060
                  z  -0.04591 -0.03750 -0.02181 -0.00164  0.00681  0.05433
 10   c           x  -0.06534 -0.08453 -0.06276  0.00014 -0.00030 -0.00211
                  y  -0.08490 -0.04849 -0.01753  0.00007 -0.00011 -0.00051
                  z   0.09881  0.06703  0.03577 -0.00008  0.00008  0.00042
 11   c           x  -0.01460 -0.00089 -0.00650 -0.00006  0.00005  0.00037
                  y   0.01805 -0.00785  0.00539  0.00012 -0.00009  0.00003
                  z  -0.00686 -0.00702  0.00261 -0.00009  0.00003 -0.00025
 12   c           x   0.09243 -0.08793  0.05388  0.00054 -0.00024  0.00016
                  y  -0.18098  0.21897 -0.11886 -0.00272  0.00146 -0.00048
                  z  -0.06225  0.05244 -0.03296  0.00007 -0.00006 -0.00005
 13   n           x  -0.00879  0.00655 -0.00094  0.00095 -0.00055  0.00012
                  y   0.33780 -0.38344  0.21286  0.00250 -0.00136  0.00027
                  z   0.04079 -0.03911  0.02070 -0.00104  0.00058 -0.00013
 14   c           x  -0.08846  0.13096 -0.07192 -0.03718  0.02042 -0.00372
                  y  -0.26230  0.30767 -0.16971  0.05108 -0.02806  0.00503
                  z   0.01825 -0.03844  0.02076  0.03770 -0.02069  0.00375
 15   c           x  -0.03917 -0.01396 -0.00691  0.00051 -0.00030  0.00007
                  y   0.11881 -0.11558  0.06009  0.00195 -0.00093  0.00017
                  z   0.07336 -0.03852  0.02637 -0.00004  0.00007 -0.00000
 16   c           x   0.02280 -0.00388 -0.00970 -0.00022 -0.00004  0.00001
                  y   0.00217 -0.00455  0.00075 -0.00031  0.00024 -0.00007
                  z  -0.00805  0.00246 -0.00744 -0.00009  0.00017 -0.00002
 17   c           x  -0.20287 -0.00362  0.26861  0.00125  0.00274 -0.00028
                  y  -0.00555  0.00647 -0.01921 -0.00050 -0.00088  0.00012
                  z  -0.05723  0.00144  0.06099 -0.00001  0.00009 -0.00000
 18   c           x  -0.00958 -0.00359 -0.00444  0.00010  0.00022 -0.00016
                  y  -0.02228 -0.00820  0.00210 -0.00014 -0.00028 -0.00009
                  z  -0.00265  0.00745  0.00553  0.00011  0.00020 -0.00010
 19   c           x   0.12426 -0.00180 -0.11050 -0.00078 -0.00139  0.00003
                  y  -0.00698 -0.01514  0.06012  0.00074  0.00136 -0.00011
                  z   0.07405 -0.00034 -0.05943 -0.00012 -0.00024 -0.00003
 20   c           x  -0.18359 -0.00427  0.23236 -0.03542 -0.06326  0.00688
                  y   0.20448  0.00657 -0.30736 -0.00864 -0.01553  0.00169
                  z  -0.02619 -0.00005  0.02322 -0.01868 -0.03339  0.00362
 21   n           x   0.29736  0.00723 -0.38645 -0.00092 -0.00167  0.00016
                  y  -0.14506 -0.00102  0.19651  0.00122  0.00226 -0.00027
                  z   0.06929  0.00162 -0.08329  0.00030  0.00058 -0.00007
 22   h           x  -0.01263  0.02089  0.03703 -0.00114 -0.00215  0.00011
                  y   0.11391  0.03632 -0.02389 -0.00070 -0.00129  0.00008
                  z   0.00152 -0.00249 -0.01535 -0.00233 -0.00454  0.00036
 23   h           x  -0.02749 -0.02566 -0.00521 -0.00024 -0.00076  0.00003
                  y   0.01239 -0.01269 -0.02326 -0.00043 -0.00052  0.00015
                  z  -0.05812 -0.02509  0.02428  0.00033  0.00101  0.00010
 24   h           x   0.02276  0.01436  0.00925  0.00018  0.00012  0.00016
                  y   0.00405 -0.02971  0.00845  0.00014 -0.00007 -0.00123
                  z  -0.06120 -0.00159 -0.03682  0.00028 -0.00006 -0.00076
 25   h           x   0.10576  0.02344  0.03783 -0.00000  0.00002  0.00020
                  y  -0.04388  0.03820 -0.01905  0.00014 -0.00024 -0.00155
                  z   0.00964  0.00511  0.00940 -0.00039  0.00061  0.00543
 26   h           x  -0.00935  0.01473 -0.02933 -0.00103  0.00058 -0.00013
                  y  -0.03542  0.01691  0.01186  0.00026 -0.00004  0.00018
                  z  -0.05421  0.02937  0.01558 -0.00083  0.00017 -0.00025
 27   h           x  -0.08876  0.01978  0.03598 -0.00128  0.00061 -0.00011
                  y  -0.06587  0.03638 -0.02112  0.00165 -0.00079  0.00019
                  z   0.02787 -0.02020  0.00388  0.00471 -0.00239  0.00062
 28   h           x   0.12356 -0.14233  0.07588  0.42099 -0.23097  0.04167
                  y  -0.02896  0.01402 -0.00636 -0.62683  0.34392 -0.06216
                  z  -0.04602  0.04033 -0.02965 -0.43271  0.23743 -0.04295
 29   h           x  -0.08645 -0.00364  0.09389  0.42423  0.75830 -0.08214
                  y  -0.10138 -0.00289  0.14184  0.08606  0.15373 -0.01664
                  z  -0.02050  0.00641  0.01460  0.21720  0.38838 -0.04210
 30   h           x  -0.04716 -0.06828 -0.03991 -0.00794  0.03268  0.26092
                  y   0.11779  0.12222  0.07696 -0.02161  0.08925  0.71150
                  z  -0.04845 -0.04416 -0.01924  0.01928 -0.07946 -0.63426

reduced mass(g/mol)    11.523   12.006   12.005    1.086    1.086    1.086


       mode              85       86       87       88       89       90

     frequency        2986.20  2987.68  2987.77  3063.70  3065.12  3065.50

     symmetry            a        a        a        a        a        a   

        IR               YES      YES      YES      YES      YES      YES
|dDIP/dQ|   (a.u.)     0.0024   0.0020   0.0028   0.0014   0.0014   0.0015
intensity (km/mol)       9.90     7.23    13.92     3.39     3.26     3.82
intensity (  %   )      17.55    12.82    24.66     6.01     5.77     6.77
 
       RAMAN             YES      YES      YES      YES      YES      YES
 
  1   c           x  -0.00010 -0.00025 -0.00011  0.00012  0.00036 -0.00002
                  y  -0.00004 -0.00040 -0.00018  0.00005  0.00004 -0.00001
                  z   0.00003  0.00044  0.00018 -0.00006 -0.00009  0.00001
  2   c           x  -0.00002 -0.00035 -0.00009  0.00001  0.00010  0.00005
                  y  -0.00001 -0.00011  0.00014 -0.00000  0.00033  0.00008
                  z   0.00000  0.00031  0.00008  0.00002  0.00003 -0.00015
  3   c           x   0.00029  0.00016  0.00007  0.00032  0.00014  0.00000
                  y  -0.00027  0.00004  0.00003  0.00006  0.00001  0.00001
                  z   0.00029 -0.00001  0.00001 -0.00012  0.00012  0.00000
  4   c           x   0.00061  0.00000 -0.00007  0.00024 -0.00002 -0.00011
                  y   0.00002 -0.00003  0.00006 -0.00028  0.00000  0.00007
                  z   0.00036 -0.00001 -0.00001  0.00007 -0.00000 -0.00005
  5   c           x  -0.00012  0.00007 -0.00013  0.00006 -0.00001 -0.00023
                  y   0.00015  0.00016 -0.00037 -0.00013  0.00001  0.00023
                  z   0.00002  0.00008 -0.00021 -0.00013 -0.00002 -0.00009
  6   c           x   0.00000 -0.00007  0.00022 -0.00001  0.00002  0.00014
                  y   0.00000  0.00030 -0.00047  0.00000  0.00015  0.00034
                  z   0.00001  0.00014 -0.00034  0.00000  0.00003  0.00001
  7   c           x   0.00010 -0.00016 -0.00005  0.00067 -0.00004  0.00001
                  y  -0.00024 -0.00018 -0.00007  0.00062  0.00016 -0.00000
                  z   0.00018  0.00009  0.00004 -0.00030 -0.00012 -0.00001
  8   n           x   0.00014  0.00040  0.00016  0.00001 -0.00022  0.00002
                  y   0.00032  0.00015  0.00008 -0.00013 -0.00006  0.00000
                  z  -0.00024 -0.00001 -0.00002  0.00024  0.00002  0.00001
  9   c           x  -0.00051 -0.00044 -0.00020 -0.00020 -0.00001 -0.00001
                  y   0.00000  0.00051  0.00019  0.00000 -0.00043  0.00003
                  z   0.00004 -0.00042 -0.00015  0.00001  0.00015 -0.00001
 10   c           x   0.00018  0.00028  0.00011  0.00002  0.00076 -0.00004
                  y  -0.00008 -0.00029 -0.00010 -0.00013 -0.00016 -0.00000
                  z   0.00009  0.00021  0.00008  0.00008 -0.00036  0.00002
 11   c           x   0.00127  0.05268  0.02180  0.00005  0.00474 -0.00026
                  y   0.00101  0.04183  0.01732  0.00010  0.00849 -0.00047
                  z   0.00017  0.00765  0.00319  0.00130  0.09011 -0.00501
 12   c           x  -0.00001 -0.00027 -0.00001 -0.00000 -0.00021 -0.00015
                  y   0.00002  0.00016 -0.00021  0.00001  0.00094  0.00003
                  z  -0.00000  0.00018  0.00002 -0.00001  0.00010  0.00010
 13   n           x  -0.00001  0.00017  0.00014  0.00000  0.00011 -0.00007
                  y  -0.00002 -0.00047  0.00029 -0.00000 -0.00012 -0.00022
                  z   0.00001 -0.00013 -0.00014  0.00000 -0.00022  0.00004
 14   c           x   0.00004  0.00049 -0.00056  0.00000 -0.00009  0.00037
                  y  -0.00001  0.00042  0.00012  0.00000 -0.00018 -0.00025
                  z  -0.00003 -0.00024  0.00043 -0.00000  0.00003 -0.00011
 15   c           x  -0.00003 -0.00030  0.00033 -0.00001  0.00014  0.00051
                  y   0.00000 -0.00010  0.00001 -0.00001 -0.00003  0.00065
                  z   0.00001  0.00020 -0.00019 -0.00001 -0.00006  0.00021
 16   c           x   0.00024  0.00446 -0.01079  0.00008 -0.00039 -0.00712
                  y  -0.00147 -0.02596  0.06290  0.00015 -0.00076 -0.01309
                  z   0.00051  0.00944 -0.02291  0.00104 -0.00497 -0.08935
 17   c           x   0.00027  0.00007 -0.00016  0.00017 -0.00005 -0.00091
                  y  -0.00003  0.00008 -0.00022  0.00012  0.00001  0.00026
                  z   0.00005  0.00004 -0.00010  0.00008  0.00001 -0.00013
 18   c           x  -0.06441  0.00190 -0.00074 -0.01012  0.00014 -0.00009
                  y   0.02876 -0.00084  0.00034 -0.00860  0.00012 -0.00011
                  z   0.02019 -0.00062  0.00023 -0.08969  0.00123 -0.00112
 19   c           x   0.00016  0.00001  0.00001  0.00032 -0.00000  0.00012
                  y   0.00044  0.00008 -0.00017 -0.00070  0.00001  0.00007
                  z   0.00017  0.00002 -0.00006  0.00037  0.00000  0.00006
 20   c           x  -0.00031  0.00009 -0.00026 -0.00041  0.00001  0.00009
                  y  -0.00074 -0.00015  0.00038 -0.00021  0.00000 -0.00018
                  z  -0.00032  0.00001 -0.00004 -0.00005  0.00000  0.00001
 21   n           x  -0.00037 -0.00013  0.00036 -0.00017  0.00001  0.00015
                  y   0.00029 -0.00002  0.00006  0.00016 -0.00000  0.00010
                  z   0.00002 -0.00006  0.00015 -0.00001  0.00001  0.00020
 22   h           x   0.10619 -0.00310  0.00124  0.33953 -0.00471  0.00417
                  y   0.00249 -0.00007  0.00001 -0.01371  0.00019 -0.00017
                  z   0.32316 -0.00929  0.00374  0.87813 -0.01212  0.01075
 23   h           x   0.65673 -0.01912  0.00755 -0.23568  0.00329 -0.00299
                  y  -0.34554  0.01011 -0.00389  0.12095 -0.00168  0.00144
                  z  -0.57203  0.01667 -0.00659  0.18615 -0.00256  0.00238
 24   h           x  -0.01433 -0.58602 -0.24245 -0.00329 -0.22718  0.01268
                  y  -0.01172 -0.48206 -0.19934 -0.00257 -0.18634  0.01041
                  z  -0.01010 -0.41468 -0.17153 -0.00202 -0.14402  0.00801
 25   h           x  -0.00095 -0.04013 -0.01660  0.00230  0.15851 -0.00884
                  y  -0.00034 -0.01442 -0.00600  0.00107  0.07445 -0.00416
                  z   0.00770  0.31519  0.13023 -0.01341 -0.92234  0.05136
 26   h           x  -0.00341 -0.05864  0.14213 -0.00061  0.00290  0.05382
                  y   0.01483  0.26087 -0.63163  0.00280 -0.01371 -0.24637
                  z  -0.01350 -0.23737  0.57478 -0.00236  0.01135  0.20459
 27   h           x   0.00036  0.00590 -0.01430 -0.00040  0.00191  0.03409
                  y   0.00268  0.04681 -0.11341 -0.00442  0.02152  0.38514
                  z   0.00705  0.12161 -0.29441 -0.00988  0.04789  0.85649
 28   h           x  -0.00017 -0.00049  0.00163  0.00001 -0.00036 -0.00331
                  y   0.00024  0.00057 -0.00121  0.00002 -0.00003  0.00300
                  z   0.00019  0.00041 -0.00118  0.00003  0.00005  0.00202
 29   h           x   0.00204  0.00016  0.00015  0.00435 -0.00011  0.00014
                  y   0.00109 -0.00006  0.00021  0.00191 -0.00005 -0.00020
                  z   0.00099  0.00010  0.00009  0.00155 -0.00006  0.00014
 30   h           x  -0.00015 -0.00003  0.00007 -0.00023  0.00039 -0.00005
                  y   0.00006 -0.00194 -0.00058  0.00012  0.00411 -0.00027
                  z  -0.00001  0.00145  0.00037  0.00008 -0.00251  0.00020

reduced mass(g/mol)     1.067    1.067    1.067    1.098    1.099    1.099
 

         **************************************************************
         *                                                            *
         *  zero point VIBRATIONAL energy  :      0.2234672  Hartree  *
         *    SCF-energy                   :   -850.5301081           *
         *    SCF + E(vib0)                :   -850.3066409           *
         *                                                            *
         **************************************************************




 time elapsed for vibrational analysis     0.03 sec


    ------------------------------------------------------------------------
         total  cpu-time : 42 minutes and 10 seconds
         total wall-time : 42 minutes and 11 seconds
    ------------------------------------------------------------------------

   ****  force : all done  ****


    2018-03-20 23:27:19.040 

aoforce ended normally 
