           Doing BLAS/Lapack in the master proc. with  8 CPUs.
           SMPCPUS    set: Shared-memory Parallelization with   8 CPUs.

           SMP Parallelization Reference:
           C. van Wullen, J. Comput. Chem. 32 (2011) 1195--1201
 operating system is UNIX !

 escf (c-5-17.gp.local) : TURBOMOLE V7.2 ( 21454 ) 4 Oct 2017 at 12:48:15
 Copyright (C) 2017 TURBOMOLE GmbH, Karlsruhe


    2018-03-23 10:13:48.703 




                                e s c f

                             TURBOMOLE GmbH


          integral direct evaluation of 

                    * excitation energies and transition moments 
                    * dynamic response properties 
                    * stabilities



          references (see also programs dscf and ridft) 

          implementation and benchmarks (review) 
          F. Furche and D. Rappoport,  
          "Density functional methods for excited states: 
          equilibrium structure and electronic spectra",
          ch. III of "Computational Photochemistry", ed. by 
          M. Olivucci, vol. 16 of "Theoretical and Computational 
          Chemistry", Elsevier, Amsterdam, 2005.

          nonorthonormal Krylov space methods 
          F. Furche, B. T. Krull, B. D. Nguyen, J. Kwon, 
          J. Chem. Phys. 144 (2016), 174105.

          two-component GW quasi particle energies 
          M. Kuehn and F. Weigend, 
          J. Chem. Theory Comput. 11 (2015), 969.

          two-component TDDFT with spin-orbit coupling 
          M. Kuehn and F. Weigend, 
          J. Chem. Theory Comput. 9 (2013), 5341.
          M. Kuehn and F. Weigend, 
          J. Chem. Phys. 142 (2015), 034116.

          GW quasi particle energies
          M. J. van Setten, F. Weigend, and F. Evers,
          J. Chem. Theory Comput. 9 (2013), 232.

          current-density dependent meta-GGA Linear Response
          J. E. Bates and F. Furche, 
          J. Chem. Phys. 137 (2012), 164105.

          spin-flip method 
          M. Kuehn and F. Weigend, 
          Chem. Phys. Chem. 12 (2011), 3331.

          RI-J method 
          R. Bauernschmitt, M. Haeser, O. Treutler, and R. Ahlrichs,
          Chem. Phys. Lett. 264 (1997), 573.

          density functional implementation               
          R. Bauernschmitt and R. Ahlrichs,
          Chem. Phys. Lett. 256 (1996), 454.
          R. Bauernschmitt and R. Ahlrichs,
          J. Chem. Phys. 104 (1996), 9047.

          UHF extension (RPA and CIS)
          C. Ochsenfeld, J. Gauss, and R. Ahlrichs, 
          J. Chem. Phys. 103 (1995), 7401.

          integral direct algorithm                 
          H. Weiss, R. Ahlrichs, and M. Haeser, 
          J. Chem. Phys. 99 (1993), 1262.
                                     




              +--------------------------------------------------+
              | Atomic coordinate, charge and isotop information |
              +--------------------------------------------------+

                    atomic coordinates            atom    charge  isotop
         -1.08589378   -2.69390623   -1.50426373    c      6.000     0
         -2.79274565   -0.58465363   -1.63423919    c      6.000     0
          1.51213342   -2.30751613   -1.78695527    c      6.000     0
          2.48405279    0.20721432   -2.11742451    c      6.000     0
          0.82332891    2.25765097   -2.24382770    c      6.000     0
         -1.84839214    1.86181861   -1.95387137    c      6.000     0
          3.17734417   -3.69780267   -0.25558931    c      6.000     0
          2.26221522   -5.55494527    1.12066952    n      7.000     0
         -0.12122258   -5.99222709    1.35835269    c      6.000     0
         -1.96430590   -4.51248811    0.23837339    c      6.000     0
         -4.68135420   -3.74243936    0.97970040    c      6.000     0
         -4.78569325   -0.96347850    0.07947981    c      6.000     0
         -5.92225759    1.02582162    1.04495945    n      7.000     0
         -5.13034784    3.30537628    0.72078263    c      6.000     0
         -2.96298760    3.88774478   -0.62285513    c      6.000     0
         -0.94194129    5.98474845   -0.41061643    c      6.000     0
          1.50993777    4.52426382   -1.04307804    c      6.000     0
          5.66617612   -2.18181866   -0.02875491    c      6.000     0
          4.82608447    0.48469943   -0.87011105    c      6.000     0
          5.41295894    2.91036625   -0.08726386    c      6.000     0
          3.82307233    4.75287128   -0.16077289    n      7.000     0
          6.41828636   -2.21911561    1.91987933    h      1.000     0
          7.15403284   -2.96073956   -1.28665224    h      1.000     0
         -6.11579009   -4.91859062   -0.00029594    h      1.000     0
         -5.03994679   -3.90295193    3.03134584    h      1.000     0
         -1.28481724    7.53489205   -1.78216636    h      1.000     0
         -0.85965424    6.84349550    1.49164792    h      1.000     0
         -6.11203928    4.86297749    1.76366950    h      1.000     0
          7.27472993    3.23242349    0.86565145    h      1.000     0
         -0.73194575   -7.49518604    2.71676109    h      1.000     0
 
       center of nuclear mass  :   -0.02937796   -0.04087048   -0.36454391
       center of nuclear charge:   -0.02589232   -0.03602353   -0.32129809

              +--------------------------------------------------+
              |               basis set information              |
              +--------------------------------------------------+

              we will work with the 1s 3p 5d 7f 9g ... basis set
              ...i.e. with spherical basis functions...

   type   atoms  prim   cont   basis
   ---------------------------------------------------------------------------
    c       18     24     14   def2-SV(P)   [3s2p1d|7s4p1d]
    n        3     24     14   def2-SV(P)   [3s2p1d|7s4p1d]
    h        9      4      2   def2-SV(P)   [2s|4s]
   ---------------------------------------------------------------------------
   total:   30    540    312
   ---------------------------------------------------------------------------

   total number of primitive shells          :   28
   total number of contracted shells         :  144
   total number of cartesian basis functions :  333
   total number of SCF-basis functions       :  312


 residuum convergence criterium   :  0.10E-04


 integral neglect threshold       :  0.10E-10
 integral storage threshold THIZE :  0.10E-04
 integral storage threshold THIME :         5

 
             FOUND RI-J FLAG !
 
  
 AUXILIARY BASIS SET information:

              we will work with the 1s 3p 5d 7f 9g ... basis set
              ...i.e. with spherical basis functions...

   type   atoms  prim   cont   basis
   ---------------------------------------------------------------------------
    c       18     70     49   def2-SV(P)   [6s4p3d1f1g|12s5p4d2f1g]
    n        3     70     49   def2-SV(P)   [6s4p3d1f1g|12s5p4d2f1g]
    h        9     16     11   def2-SV(P)   [3s1p1d|5s2p1d]
   ---------------------------------------------------------------------------
   total:   30   1614   1128
   ---------------------------------------------------------------------------

   total number of primitive shells          :   56
   total number of contracted shells         :  360
   total number of cartesian basis functions : 1389
   total number of SCF-basis functions       : 1128

 RPA SINGLET-EXCITATION-CALCULATION 
 
             FOUND DFT-FLAG !
 

 symmetry group of the molecule :   c1 

 the group has the following generators :
   c1(z)

    1 symmetry operations found

 there are 1 real representations :   a   

 maximum number of shells which are related by symmetry :  1

 IRREPs of excited states :   a   
 

 determining totally symmetric integral contributions 
    - equivalent to irreducible tensor elements - 
 which can be formed within each triple of representations :

             representation triple      contributions

              a     a     a               1

    mo occupation :
   irrep   mo's   occupied
    a      312       69
 
 number of basis functions   :                    312
 number of occupied orbitals :                     69
 
  
           ------------------
           density functional
           ------------------
 TPSS meta-GGA functional
 exchange:    LDA + TPSS
 correlation: LDA (PW) + TPSS

 iterations will be done with small grid
  
 spherical integration : Lebedev's spherical grid
 spherical gridsize    :                     3
    i.e. gridpoints    :                   302
 value for diffuse not defined
 radial integration    : Chebyshev 2nd kind (scaling 3)
 radial gridsize       :                     3
 integration cells     :                    30
 partition function    : becke
 partition sharpness   :                     3
  

 The current-density response will be included
 for meta-GGA functionals in TDDFT.
 
  
           ----------------------
               RI - INFORMATION
           ----------------------

 biggest AO integral is expected to be     4.152585025

 Threshold for integral neglect (rithr2):   0.10E-10
 Threshold for integral neglect (rithr1):   0.10E-10

 Contributions to RI integral batches: 
  neglected integral batches:                  1438
  direct contribution:                          120
  memory contribution:                  8882
 Core memory available (ricore)            500 MiB
 Core memory needed for (P|Q) and Cholesky 10 MiB
 Core memory used for integrals            486 MiB
  
 ****************************************
 Memory allocated for RIDFT 496 MiB
 ****************************************
                                            
  MOs are in ASCII format !


 reading orbital data $scfmo  from file mos
 orbital characterization : scfconv=7
 preparing numerical integration ....
          Overall gridpoints after grid construction =         43551

 Calculating ground state density on molecular grid

 Integral of ground state density: N =   137.9988400752547    


 all orbitals will be included in the transformation

 number of non-frozen orbitals          :   312
 number of non-frozen occupied orbitals :    69



 dimension of super-tensorspace: 2

          IRREP   tensor space dimension   number of roots

           a             16767                  20

 maximum number of Davidson iterations set to   25


 machine precision: 2.22D-16


 logfile sing_a    will be constructed


                       Nonorthonormal Krylov Space Iteration


 total number of roots to be determined:  20


 maximum core memory set to  4000 MB,
 corresponding to     2324 vectors in CAO basis


 maximum number of simultaneously treated vectors (including degeneracy):       28


 Iteration IRREP Converged      Max. Euclidean
                 roots          residual norm

    1       a        0        1.018265223598208D-01
 
    2       a        0        3.485874939877240D-02
 
    3       a        0        9.517317786615914D-03
 
    4       a        0        1.765101695019808D-03
 
    5       a        0        2.416130819832888D-04
 
    6       a       15        3.227124323165365D-05
 
    7       a       20        9.176054461519753D-06
 

 converged!


 Switching to fine grid

 preparing numerical integration ....
          Overall gridpoints after grid construction =        155868

 Calculating ground state density on molecular grid

 Integral of ground state density: N =   138.0002356577437    



 Iteration IRREP Converged      Max. Euclidean
                 roots          residual norm

    8       a        0        2.091463678914686D-04
 

 NOTE: Residual norms are larger than 1.00D-05 due to mgrid option!

 Eigenpairs written on logfile sing_a   



 IRREP   Vector     Eigenvalue           Euclidean residual norm

  a         1    1.178173493223925D-01    1.434011444845839D-04
            2    1.192910135410148D-01    1.491446608404527D-04
            3    1.198368138363775D-01    1.046765548256283D-04
            4    1.199209976626381D-01    1.078581738430432D-04
            5    1.229786312340915D-01    1.703893021804166D-04
            6    1.230022501568653D-01    1.746209863366804D-04
            7    1.314475960965449D-01    1.564208293544990D-04
            8    1.314548824017198D-01    1.589450790746613D-04
            9    1.335077191037187D-01    1.599837789450430D-04
           10    1.398935572345255D-01    1.197558289164256D-04
           11    1.424738172492800D-01    1.879711495303287D-04
           12    1.447415825775162D-01    1.339900426298381D-04
           13    1.447555754720636D-01    1.360504577625373D-04
           14    1.530713544635063D-01    1.756551590987270D-04
           15    1.530843849262412D-01    1.809621897566707D-04
           16    1.609861228155571D-01    1.687058083209333D-04
           17    1.647768392556482D-01    1.492317328677097D-04
           18    1.648056449445534D-01    1.533326286939298D-04
           19    1.649111397342143D-01    1.455240165005123D-04
           20    1.672652089633727D-01    2.091463678914686D-04
 




                    Selection rules for point group c1  


 Subduction with respect to c1  :

    Polar vector representation: a                           

    Axial vector representation: a                           

    Symmetric second rank tensor representation: a                           




                            Ground state


 Total energy:                           -850.5301081456000    

 Charge:

               elec          nuc         total

          -138.000000   138.000000    -0.000000


 Electric dipole moment:

               elec          nuc         total   

    x        3.560105    -3.573140    -0.013035    Norm:              0.149221
    y        4.955985    -4.971247    -0.015261
    z       44.191271   -44.339136    -0.147865    Norm / debye:      0.379286


 Electric quadrupole moment:

               elec          nuc         total   

   xx    -1939.531277  1851.711764   -87.819513
   yy    -1929.531848  1841.688629   -87.843220    1/3*trace:       -87.811927
   zz     -299.515025   211.741975   -87.773050
   xy       14.738031   -14.735691     0.002340
   xz      133.234009  -133.219964     0.014045    Anisotropy:        0.069314
   yz      185.039060  -185.027896     0.011163



 ==============================================================================

                              I R R E P   a   

 ==============================================================================


 Excitation is electric dipole allowed

 Excitation is magnetic dipole allowed

 Excitation is electric quadrupole allowed
# singlet excitations




                         1 singlet a excitation


 Total energy:                           -850.4122907962776    

 Excitation energy:                      0.1178173493223925    

 Excitation energy / eV:                  3.205974568110903    

 Excitation energy / nm:                  386.7287196839030    

 Excitation energy / cm^(-1):             25857.91923258498    


 Oscillator strength:

    velocity representation:             0.6135291116741966E-03

    length representation:               0.7199394773961819E-03

    mixed representation:                0.6646020077772614E-03


 Rotatory strength:

    velocity representation:            -0.2740084824817430E-03

    velocity rep. / 10^(-40)erg*cm^3:    -17.70226770448818    

    length representation:              -0.2967663792447605E-03

    length rep. / 10^(-40)erg*cm^3:      -19.17253744665531    


 Dominant contributions:

      occ. orbital   energy / eV   virt. orbital     energy / eV   |coeff.|^2*100
       69 a              -5.54          71 a              -2.37       36.2
       68 a              -5.55          70 a              -2.37       33.7
       69 a              -5.54          70 a              -2.37       14.6
       68 a              -5.55          71 a              -2.37       13.9
 

 Change of electron number:

             0.000000


 Electric transition dipole moment (velocity rep.):

    x       -0.009870        Norm:                  0.088381
    y       -0.012309
    z       -0.086961        Norm / debye:          0.224644


 Electric transition dipole moment (length rep.):

    x       -0.010958        Norm:                  0.095739
    y       -0.013634
    z       -0.094128        Norm / debye:          0.243346


 Magnetic transition dipole moment / i:

    x        0.000235        Norm:                  0.003103
    y        0.000363
    z        0.003073        Norm / Bohr mag.:      0.850485


 Electric quadrupole transition moment:

   xx       -0.469626
   yy       -0.461100        1/3*trace:            -0.246645
   zz        0.190792
   xy       -0.007070
   xz        0.051473        Anisotropy:            0.672683
   yz        0.067850




                         2 singlet a excitation


 Total energy:                           -850.4108171320590    

 Excitation energy:                      0.1192910135410148    

 Excitation energy / eV:                  3.246075028985388    

 Excitation energy / nm:                  381.9512577477963    

 Excitation energy / cm^(-1):             26181.35114274292    


 Oscillator strength:

    velocity representation:             0.2536608485191117E-02

    length representation:               0.2237019703151786E-02

    mixed representation:                0.2381492267809611E-02


 Rotatory strength:

    velocity representation:             0.2211198637252379E-03

    velocity rep. / 10^(-40)erg*cm^3:     14.28540819974401    

    length representation:               0.2071923543921278E-03

    length rep. / 10^(-40)erg*cm^3:       13.38562401628210    


 Dominant contributions:

      occ. orbital   energy / eV   virt. orbital     energy / eV   |coeff.|^2*100
       69 a              -5.54          70 a              -2.37       39.9
       68 a              -5.55          71 a              -2.37       30.0
       69 a              -5.54          71 a              -2.37       15.1
       68 a              -5.55          70 a              -2.37       13.7
 

 Change of electron number:

             0.000000


 Electric transition dipole moment (velocity rep.):

    x        0.016321        Norm:                  0.178595
    y        0.005082
    z        0.177775        Norm / debye:          0.453946


 Electric transition dipole moment (length rep.):

    x        0.018015        Norm:                  0.167717
    y        0.002071
    z        0.166734        Norm / debye:          0.426297


 Magnetic transition dipole moment / i:

    x        0.000012        Norm:                  0.001243
    y        0.000084
    z        0.001240        Norm / Bohr mag.:      0.340733


 Electric quadrupole transition moment:

   xx       -0.040667
   yy        0.039576        1/3*trace:             0.037380
   zz        0.113231
   xy        0.015483
   xz        0.035927        Anisotropy:            0.150929
   yz       -0.011746




                         3 singlet a excitation


 Total energy:                           -850.4102713317636    

 Excitation energy:                      0.1198368138363775    

 Excitation energy / eV:                  3.260927017052206    

 Excitation energy / nm:                  380.2116495037258    

 Excitation energy / cm^(-1):             26301.14046100360    


 Oscillator strength:

    velocity representation:             0.2664193958095561E-02

    length representation:               0.3489558989512510E-02

    mixed representation:                0.3021524669786507E-02


 Rotatory strength:

    velocity representation:             0.1021691832932777E-03

    velocity rep. / 10^(-40)erg*cm^3:     6.600621329038708    

    length representation:               0.8402193179359157E-04

    length rep. / 10^(-40)erg*cm^3:       5.428221477623444    


 Dominant contributions:

      occ. orbital   energy / eV   virt. orbital     energy / eV   |coeff.|^2*100
       69 a              -5.54          72 a              -2.30       31.2
       68 a              -5.55          70 a              -2.37       21.4
       69 a              -5.54          71 a              -2.37       17.2
       68 a              -5.55          71 a              -2.37       13.0
       69 a              -5.54          70 a              -2.37        9.0
 

 Change of electron number:

             0.000000


 Electric transition dipole moment (velocity rep.):

    x       -0.130761        Norm:                  0.182614
    y        0.127248
    z        0.007568        Norm / debye:          0.464161


 Electric transition dipole moment (length rep.):

    x       -0.167749        Norm:                  0.208995
    y        0.124216
    z        0.010465        Norm / debye:          0.531216


 Magnetic transition dipole moment / i:

    x        0.000382        Norm:                  0.001269
    y        0.001203
    z       -0.000127        Norm / Bohr mag.:      0.347710


 Electric quadrupole transition moment:

   xx        0.239292
   yy       -0.285635        1/3*trace:             0.005092
   zz        0.061620
   xy       -0.545062
   xz       -0.335612        Anisotropy:            1.203302
   yz        0.040418




                         4 singlet a excitation


 Total energy:                           -850.4101871479373    

 Excitation energy:                      0.1199209976626381    

 Excitation energy / eV:                  3.263217776499689    

 Excitation energy / nm:                  379.9447431898363    

 Excitation energy / cm^(-1):             26319.61667518306    


 Oscillator strength:

    velocity representation:             0.2843351810377155E-02

    length representation:               0.3678455213926031E-02

    mixed representation:                0.3205347021087924E-02


 Rotatory strength:

    velocity representation:             0.1100527954483156E-03

    velocity rep. / 10^(-40)erg*cm^3:     7.109940644933012    

    length representation:               0.9180090054167709E-04

    length rep. / 10^(-40)erg*cm^3:       5.930780325423465    


 Dominant contributions:

      occ. orbital   energy / eV   virt. orbital     energy / eV   |coeff.|^2*100
       68 a              -5.55          72 a              -2.30       31.9
       68 a              -5.55          71 a              -2.37       21.7
       69 a              -5.54          70 a              -2.37       16.1
       69 a              -5.54          71 a              -2.37       11.6
       68 a              -5.55          70 a              -2.37       10.3
 

 Change of electron number:

             0.000000


 Electric transition dipole moment (velocity rep.):

    x       -0.131943        Norm:                  0.188588
    y       -0.133587
    z        0.017626        Norm / debye:          0.479346


 Electric transition dipole moment (length rep.):

    x       -0.128365        Norm:                  0.214502
    y       -0.170397
    z        0.022321        Norm / debye:          0.545213


 Magnetic transition dipole moment / i:

    x       -0.001217        Norm:                  0.001273
    y        0.000369
    z       -0.000068        Norm / Bohr mag.:      0.348941


 Electric quadrupole transition moment:

   xx       -0.465982
   yy        0.406392        1/3*trace:             0.002202
   zz        0.066197
   xy       -0.306751
   xz        0.108709        Anisotropy:            1.174764
   yz       -0.400973




                         5 singlet a excitation


 Total energy:                           -850.4071295143659    

 Excitation energy:                      0.1229786312340915    

 Excitation energy / eV:                  3.346420254955201    

 Excitation energy / nm:                  370.4981280306293    

 Excitation energy / cm^(-1):             26990.68967409373    


 Oscillator strength:

    velocity representation:             0.1252461427297276E-01

    length representation:               0.1140087073485468E-01

    mixed representation:                0.1194586869206849E-01


 Rotatory strength:

    velocity representation:             0.5541826842049891E-06

    velocity rep. / 10^(-40)erg*cm^3:    0.3580287056858614E-01

    length representation:               0.7377557682252373E-05

    length rep. / 10^(-40)erg*cm^3:      0.4766257595884338    


 Dominant contributions:

      occ. orbital   energy / eV   virt. orbital     energy / eV   |coeff.|^2*100
       69 a              -5.54          72 a              -2.30       34.4
       68 a              -5.55          72 a              -2.30       24.6
       68 a              -5.55          71 a              -2.37       16.6
       69 a              -5.54          70 a              -2.37       15.5
 

 Change of electron number:

             0.000000


 Electric transition dipole moment (velocity rep.):

    x        0.086608        Norm:                  0.390853
    y        0.377885
    z       -0.049676        Norm / debye:          0.993456


 Electric transition dipole moment (length rep.):

    x        0.073639        Norm:                  0.372906
    y        0.362566
    z       -0.046719        Norm / debye:          0.947841


 Magnetic transition dipole moment / i:

    x       -0.000719        Norm:                  0.000741
    y        0.000172
    z        0.000047        Norm / Bohr mag.:      0.203088


 Electric quadrupole transition moment:

   xx       -1.476040
   yy        1.495001        1/3*trace:             0.000184
   zz       -0.018409
   xy        0.736747
   xz        0.139075        Anisotropy:            2.889522
   yz       -0.118088




                         6 singlet a excitation


 Total energy:                           -850.4071058954431    

 Excitation energy:                      0.1230022501568653    

 Excitation energy / eV:                  3.347062958819907    

 Excitation energy / nm:                  370.4269848876167    

 Excitation energy / cm^(-1):             26995.87342844703    


 Oscillator strength:

    velocity representation:             0.1247523724607041E-01

    length representation:               0.1139607751234733E-01

    mixed representation:                0.1192031798243796E-01


 Rotatory strength:

    velocity representation:            -0.3241664000867554E-05

    velocity rep. / 10^(-40)erg*cm^3:   -0.2094271076267982    

    length representation:               0.3198053501642085E-05

    length rep. / 10^(-40)erg*cm^3:      0.2066096593309518    


 Dominant contributions:

      occ. orbital   energy / eV   virt. orbital     energy / eV   |coeff.|^2*100
       68 a              -5.55          72 a              -2.30       34.4
       69 a              -5.54          72 a              -2.30       25.2
       68 a              -5.55          70 a              -2.37       16.2
       69 a              -5.54          71 a              -2.37       15.3
 

 Change of electron number:

             0.000000


 Electric transition dipole moment (velocity rep.):

    x       -0.378443        Norm:                  0.390044
    y        0.091958
    z        0.021425        Norm / debye:          0.991400


 Electric transition dipole moment (length rep.):

    x       -0.363608        Norm:                  0.372792
    y        0.079561
    z        0.020822        Norm / debye:          0.947550


 Magnetic transition dipole moment / i:

    x       -0.000160        Norm:                  0.000739
    y       -0.000716
    z        0.000092        Norm / Bohr mag.:      0.202532


 Electric quadrupole transition moment:

   xx        0.689381
   yy       -0.710352        1/3*trace:            -0.000795
   zz        0.018586
   xy        1.479380
   xz       -0.333316        Anisotropy:            2.895086
   yz        0.063878




                         7 singlet a excitation


 Total energy:                           -850.3986605495035    

 Excitation energy:                      0.1314475960965449    

 Excitation energy / eV:                  3.576872612977228    

 Excitation energy / nm:                  346.6275079426701    

 Excitation energy / cm^(-1):             28849.41260969195    


 Oscillator strength:

    velocity representation:             0.1971058363474822E-03

    length representation:               0.5529218350921779E-03

    mixed representation:                0.3058813804443987E-03


 Rotatory strength:

    velocity representation:            -0.7949743563194703E-04

    velocity rep. / 10^(-40)erg*cm^3:    -5.135917233769615    

    length representation:              -0.7853309713693917E-04

    length rep. / 10^(-40)erg*cm^3:      -5.073616322346153    


 Dominant contributions:

      occ. orbital   energy / eV   virt. orbital     energy / eV   |coeff.|^2*100
       67 a              -5.86          70 a              -2.37       82.4
       67 a              -5.86          71 a              -2.37        6.9
       65 a              -6.10          72 a              -2.30        4.2
 

 Change of electron number:

             0.000000


 Electric transition dipole moment (velocity rep.):

    x       -0.046584        Norm:                  0.047426
    y        0.008261
    z        0.003312        Norm / debye:          0.120546


 Electric transition dipole moment (length rep.):

    x       -0.067370        Norm:                  0.079433
    y        0.042057
    z        0.001433        Norm / debye:          0.201900


 Magnetic transition dipole moment / i:

    x        0.001895        Norm:                  0.002250
    y        0.001178
    z       -0.000287        Norm / Bohr mag.:      0.616616


 Electric quadrupole transition moment:

   xx        0.838410
   yy       -0.834993        1/3*trace:             0.001701
   zz        0.001688
   xy       -1.027129
   xz       -0.481099        Anisotropy:            2.557772
   yz        0.440697




                         8 singlet a excitation


 Total energy:                           -850.3986532631983    

 Excitation energy:                      0.1314548824017198    

 Excitation energy / eV:                  3.577070883513960    

 Excitation energy / nm:                  346.6082950099987    

 Excitation energy / cm^(-1):             28851.01176882939    


 Oscillator strength:

    velocity representation:             0.1534339140856904E-03

    length representation:               0.4778017235544457E-03

    mixed representation:                0.2460156407769392E-03


 Rotatory strength:

    velocity representation:            -0.7196606685470498E-04

    velocity rep. / 10^(-40)erg*cm^3:    -4.649354536628128    

    length representation:              -0.7074037084812031E-04

    length rep. / 10^(-40)erg*cm^3:      -4.570168671152852    


 Dominant contributions:

      occ. orbital   energy / eV   virt. orbital     energy / eV   |coeff.|^2*100
       67 a              -5.86          71 a              -2.37       82.5
       67 a              -5.86          70 a              -2.37        6.9
       66 a              -6.10          72 a              -2.30        4.2
 

 Change of electron number:

            -0.000000


 Electric transition dipole moment (velocity rep.):

    x        0.005550        Norm:                  0.041843
    y        0.041125
    z       -0.005360        Norm / debye:          0.106354


 Electric transition dipole moment (length rep.):

    x        0.039411        Norm:                  0.073838
    y        0.061657
    z       -0.009861        Norm / debye:          0.187679


 Magnetic transition dipole moment / i:

    x        0.001202        Norm:                  0.002249
    y       -0.001896
    z        0.000125        Norm / Bohr mag.:      0.616257


 Electric quadrupole transition moment:

   xx        1.036352
   yy       -0.885621        1/3*trace:             0.001088
   zz       -0.147466
   xy        0.967559
   xz        0.067161        Anisotropy:            2.555955
   yz        0.544893




                         9 singlet a excitation


 Total energy:                           -850.3966004264963    

 Excitation energy:                      0.1335077191037187    

 Excitation energy / eV:                  3.632931436284366    

 Excitation energy / nm:                  341.2787887163514    

 Excitation energy / cm^(-1):             29301.55734588799    


 Oscillator strength:

    velocity representation:             0.2174038287998198E-03

    length representation:               0.5550052996821850E-04

    mixed representation:                0.1093007555371403E-03


 Rotatory strength:

    velocity representation:            -0.9578057093900276E-04

    velocity rep. / 10^(-40)erg*cm^3:    -6.187886200800078    

    length representation:               0.4829357968140642E-04

    length rep. / 10^(-40)erg*cm^3:       3.119997848917867    


 Dominant contributions:

      occ. orbital   energy / eV   virt. orbital     energy / eV   |coeff.|^2*100
       67 a              -5.86          72 a              -2.30       95.8
 

 Change of electron number:

            -0.000000


 Electric transition dipole moment (velocity rep.):

    x       -0.005388        Norm:                  0.049423
    y       -0.005763
    z       -0.048789        Norm / debye:          0.125621


 Electric transition dipole moment (length rep.):

    x        0.000382        Norm:                  0.024971
    y        0.002102
    z        0.024880        Norm / debye:          0.063471


 Magnetic transition dipole moment / i:

    x        0.000151        Norm:                  0.001939
    y        0.000229
    z        0.001919        Norm / Bohr mag.:      0.531408


 Electric quadrupole transition moment:

   xx        0.550682
   yy        0.535139        1/3*trace:             0.277323
   zz       -0.253853
   xy       -0.002465
   xz       -0.069964        Anisotropy:            0.821292
   yz       -0.090929




                        10 singlet a excitation


 Total energy:                           -850.3902145883656    

 Excitation energy:                      0.1398935572345255    

 Excitation energy / eV:                  3.806699007539244    

 Excitation energy / nm:                  325.7001506053278    

 Excitation energy / cm^(-1):             30703.08681135680    


 Oscillator strength:

    velocity representation:             0.5482674226161265E-03

    length representation:               0.8209407006209850E-03

    mixed representation:                0.6708853508860186E-03


 Rotatory strength:

    velocity representation:             0.3759009530535147E-04

    velocity rep. / 10^(-40)erg*cm^3:     2.428501205895672    

    length representation:               0.4599387583199590E-04

    length rep. / 10^(-40)erg*cm^3:       2.971425903937954    


 Dominant contributions:

      occ. orbital   energy / eV   virt. orbital     energy / eV   |coeff.|^2*100
       66 a              -6.10          70 a              -2.37       37.0
       65 a              -6.10          71 a              -2.37       36.9
       66 a              -6.10          71 a              -2.37       11.8
       65 a              -6.10          70 a              -2.37       11.8
 

 Change of electron number:

             0.000000


 Electric transition dipole moment (velocity rep.):

    x       -0.005433        Norm:                  0.076673
    y       -0.008041
    z       -0.076056        Norm / debye:          0.194885


 Electric transition dipole moment (length rep.):

    x       -0.007008        Norm:                  0.093822
    y       -0.009990
    z       -0.093025        Norm / debye:          0.238472


 Magnetic transition dipole moment / i:

    x       -0.000031        Norm:                  0.000490
    y       -0.000041
    z       -0.000488        Norm / Bohr mag.:      0.134402


 Electric quadrupole transition moment:

   xx       -1.074257
   yy       -1.085887        1/3*trace:            -0.603686
   zz        0.349085
   xy        0.010058
   xz        0.112525        Anisotropy:            1.470312
   yz        0.164250




                        11 singlet a excitation


 Total energy:                           -850.3876343283507    

 Excitation energy:                      0.1424738172492800    

 Excitation energy / eV:                  3.876911485022338    

 Excitation energy / nm:                  319.8015855803165    

 Excitation energy / cm^(-1):             31269.38842520502    


 Oscillator strength:

    velocity representation:             0.1984642535069823E-04

    length representation:               0.1174673266553076E-03

    mixed representation:                0.4815827630242202E-04


 Rotatory strength:

    velocity representation:            -0.4075494649340432E-04

    velocity rep. / 10^(-40)erg*cm^3:    -2.632965835852928    

    length representation:              -0.9966865898915020E-04

    length rep. / 10^(-40)erg*cm^3:      -6.439075415451188    


 Dominant contributions:

      occ. orbital   energy / eV   virt. orbital     energy / eV   |coeff.|^2*100
       65 a              -6.10          70 a              -2.37       35.8
       66 a              -6.10          71 a              -2.37       35.6
       65 a              -6.10          71 a              -2.37       11.8
       66 a              -6.10          70 a              -2.37       11.7
 

 Change of electron number:

            -0.000000


 Electric transition dipole moment (velocity rep.):

    x        0.000457        Norm:                  0.014455
    y       -0.001805
    z       -0.014335        Norm / debye:          0.036741


 Electric transition dipole moment (length rep.):

    x       -0.001411        Norm:                  0.035167
    y       -0.004152
    z       -0.034893        Norm / debye:          0.089387


 Magnetic transition dipole moment / i:

    x        0.000215        Norm:                  0.002836
    y        0.000321
    z        0.002810        Norm / Bohr mag.:      0.777265


 Electric quadrupole transition moment:

   xx       -0.213007
   yy       -0.195355        1/3*trace:            -0.131471
   zz        0.013949
   xy       -0.023051
   xz        0.018006        Anisotropy:            0.227747
   yz        0.022268




                        12 singlet a excitation


 Total energy:                           -850.3853665630226    

 Excitation energy:                      0.1447415825775162    

 Excitation energy / eV:                  3.938620545789562    

 Excitation energy / nm:                  314.7910355035576    

 Excitation energy / cm^(-1):             31767.10538313391    


 Oscillator strength:

    velocity representation:             0.2636967629892008E-04

    length representation:               0.2245526159860641E-04

    mixed representation:                0.2318337302591796E-04


 Rotatory strength:

    velocity representation:            -0.8229018386114668E-05

    velocity rep. / 10^(-40)erg*cm^3:   -0.5316342220385938    

    length representation:              -0.1316010585502929E-04

    length rep. / 10^(-40)erg*cm^3:     -0.8502062226509832    


 Dominant contributions:

      occ. orbital   energy / eV   virt. orbital     energy / eV   |coeff.|^2*100
       65 a              -6.10          72 a              -2.30       66.2
       64 a              -6.54          70 a              -2.37       12.9
       66 a              -6.10          72 a              -2.30       10.8
       64 a              -6.54          71 a              -2.37        5.4
 

 Change of electron number:

             0.000000


 Electric transition dipole moment (velocity rep.):

    x       -0.014938        Norm:                  0.016531
    y        0.007079
    z       -0.000107        Norm / debye:          0.042018


 Electric transition dipole moment (length rep.):

    x       -0.011173        Norm:                  0.015255
    y        0.010348
    z       -0.000886        Norm / debye:          0.038774


 Magnetic transition dipole moment / i:

    x       -0.000094        Norm:                  0.001373
    y       -0.001358
    z        0.000174        Norm / Bohr mag.:      0.376217


 Electric quadrupole transition moment:

   xx       -1.551641
   yy        1.562101        1/3*trace:            -0.002076
   zz       -0.016688
   xy        1.147247
   xz        0.320350        Anisotropy:            3.431480
   yz       -0.286724




                        13 singlet a excitation


 Total energy:                           -850.3853525701279    

 Excitation energy:                      0.1447555754720636    

 Excitation energy / eV:                  3.939001311986656    

 Excitation energy / nm:                  314.7606060175091    

 Excitation energy / cm^(-1):             31770.17646849713    


 Oscillator strength:

    velocity representation:             0.5564838709535624E-04

    length representation:               0.4591933662238371E-04

    mixed representation:                0.4946007044728085E-04


 Rotatory strength:

    velocity representation:            -0.8450978308573102E-05

    velocity rep. / 10^(-40)erg*cm^3:   -0.5459739020785664    

    length representation:              -0.1344536562541374E-04

    length rep. / 10^(-40)erg*cm^3:     -0.8686353777447594    


 Dominant contributions:

      occ. orbital   energy / eV   virt. orbital     energy / eV   |coeff.|^2*100
       66 a              -6.10          72 a              -2.30       66.4
       64 a              -6.54          71 a              -2.37       12.9
       65 a              -6.10          72 a              -2.30       10.9
 

 Change of electron number:

            -0.000000


 Electric transition dipole moment (velocity rep.):

    x       -0.007760        Norm:                  0.024013
    y       -0.022395
    z        0.003858        Norm / debye:          0.061037


 Electric transition dipole moment (length rep.):

    x       -0.011159        Norm:                  0.021814
    y       -0.018494
    z        0.003046        Norm / debye:          0.055445


 Magnetic transition dipole moment / i:

    x        0.001363        Norm:                  0.001368
    y       -0.000106
    z       -0.000063        Norm / Bohr mag.:      0.375053


 Electric quadrupole transition moment:

   xx        1.104808
   yy       -1.048150        1/3*trace:             0.000873
   zz       -0.054038
   xy        1.612173
   xz       -0.251752        Anisotropy:            3.429391
   yz        0.310953




                        14 singlet a excitation


 Total energy:                           -850.3770367911366    

 Excitation energy:                      0.1530713544635063    

 Excitation energy / eV:                  4.165285268584968    

 Excitation energy / nm:                  297.6608707729358    

 Excitation energy / cm^(-1):             33595.27899162684    


 Oscillator strength:

    velocity representation:             0.9966275243899236E-01

    length representation:               0.9824204266455915E-01

    mixed representation:                0.9894802723043228E-01


 Rotatory strength:

    velocity representation:            -0.4452057502101154E-03

    velocity rep. / 10^(-40)erg*cm^3:    -28.76243575533131    

    length representation:              -0.4417899220343257E-03

    length rep. / 10^(-40)erg*cm^3:      -28.54175680315911    


 Dominant contributions:

      occ. orbital   energy / eV   virt. orbital     energy / eV   |coeff.|^2*100
       65 a              -6.10          71 a              -2.37       25.0
       66 a              -6.10          70 a              -2.37       24.9
       66 a              -6.10          71 a              -2.37        8.8
       65 a              -6.10          70 a              -2.37        8.6
       64 a              -6.54          70 a              -2.37        7.8
       67 a              -5.86          73 a              -1.11        3.9
       64 a              -6.54          71 a              -2.37        2.7
       66 a              -6.10          72 a              -2.30        1.7
       68 a              -5.55          71 a              -2.37        1.7
       69 a              -5.54          70 a              -2.37        1.7
       64 a              -6.54          73 a              -1.11        1.7
       65 a              -6.10          72 a              -2.30        1.5
 

 Change of electron number:

            -0.000000


 Electric transition dipole moment (velocity rep.):

    x       -0.292739        Norm:                  0.988246
    y       -0.935088
    z        0.128624        Norm / debye:          2.511890


 Electric transition dipole moment (length rep.):

    x       -0.296315        Norm:                  0.981177
    y       -0.926592
    z        0.127802        Norm / debye:          2.493922


 Magnetic transition dipole moment / i:

    x        0.000098        Norm:                  0.000452
    y        0.000437
    z       -0.000061        Norm / Bohr mag.:      0.123900


 Electric quadrupole transition moment:

   xx        0.005415
   yy        0.075360        1/3*trace:            -0.000433
   zz       -0.082074
   xy        0.026676
   xz        0.079656        Anisotropy:            0.564187
   yz        0.304670




                        15 singlet a excitation


 Total energy:                           -850.3770237606738    

 Excitation energy:                      0.1530843849262412    

 Excitation energy / eV:                  4.165639845668726    

 Excitation energy / nm:                  297.6355340353834    

 Excitation energy / cm^(-1):             33598.13884762344    


 Oscillator strength:

    velocity representation:             0.9977292397576044E-01

    length representation:               0.9839853733110433E-01

    mixed representation:                0.9908161537275745E-01


 Rotatory strength:

    velocity representation:            -0.4481145019705484E-03

    velocity rep. / 10^(-40)erg*cm^3:    -28.95035512878543    

    length representation:              -0.4448113497912114E-03

    length rep. / 10^(-40)erg*cm^3:      -28.73695558867746    


 Dominant contributions:

      occ. orbital   energy / eV   virt. orbital     energy / eV   |coeff.|^2*100
       66 a              -6.10          71 a              -2.37       24.7
       65 a              -6.10          70 a              -2.37       24.7
       66 a              -6.10          70 a              -2.37        8.7
       65 a              -6.10          71 a              -2.37        8.6
       64 a              -6.54          71 a              -2.37        7.7
       67 a              -5.86          74 a              -1.11        3.9
       64 a              -6.54          70 a              -2.37        2.6
       65 a              -6.10          72 a              -2.30        2.2
       66 a              -6.10          72 a              -2.30        1.9
       68 a              -5.55          70 a              -2.37        1.7
       69 a              -5.54          71 a              -2.37        1.7
       64 a              -6.54          74 a              -1.11        1.7
 

 Change of electron number:

             0.000000


 Electric transition dipole moment (velocity rep.):

    x        0.940942        Norm:                  0.988750
    y       -0.300899
    z       -0.041399        Norm / debye:          2.513171


 Electric transition dipole moment (length rep.):

    x        0.932679        Norm:                  0.981916
    y       -0.304333
    z       -0.040648        Norm / debye:          2.495801


 Magnetic transition dipole moment / i:

    x       -0.000442        Norm:                  0.000455
    y        0.000105
    z        0.000011        Norm / Bohr mag.:      0.124600


 Electric quadrupole transition moment:

   xx       -0.051108
   yy        0.022395        1/3*trace:             0.000759
   zz        0.030989
   xy       -0.026286
   xz       -0.309890        Anisotropy:            0.563018
   yz        0.083091




                        16 singlet a excitation


 Total energy:                           -850.3691220227845    

 Excitation energy:                      0.1609861228155571    

 Excitation energy / eV:                  4.380657165806399    

 Excitation energy / nm:                  283.0265855411789    

 Excitation energy / cm^(-1):             35332.36985276923    


 Oscillator strength:

    velocity representation:             0.2222519813780812E-03

    length representation:               0.1160549835735842E-04

    mixed representation:                0.4911098114446217E-04


 Rotatory strength:

    velocity representation:            -0.1104445691931120E-04

    velocity rep. / 10^(-40)erg*cm^3:   -0.7135251115788377    

    length representation:              -0.2378411278290398E-05

    length rep. / 10^(-40)erg*cm^3:     -0.1536568239725055    


 Dominant contributions:

      occ. orbital   energy / eV   virt. orbital     energy / eV   |coeff.|^2*100
       64 a              -6.54          72 a              -2.30       66.5
       69 a              -5.54          74 a              -1.11       13.7
       68 a              -5.55          73 a              -1.11       13.6
 

 Change of electron number:

            -0.000000


 Electric transition dipole moment (velocity rep.):

    x        0.006111        Norm:                  0.045507
    y        0.007286
    z        0.044502        Norm / debye:          0.115667


 Electric transition dipole moment (length rep.):

    x        0.002956        Norm:                  0.010399
    y        0.003644
    z        0.009280        Norm / debye:          0.026431


 Magnetic transition dipole moment / i:

    x       -0.000004        Norm:                  0.000245
    y       -0.000032
    z       -0.000242        Norm / Bohr mag.:      0.067023


 Electric quadrupole transition moment:

   xx       -0.475227
   yy       -0.493599        1/3*trace:            -0.243367
   zz        0.238726
   xy        0.022326
   xz        0.057583        Anisotropy:            0.746224
   yz        0.086068




                        17 singlet a excitation


 Total energy:                           -850.3653313063444    

 Excitation energy:                      0.1647768392556482    

 Excitation energy / eV:                  4.483807852625851    

 Excitation energy / nm:                  276.5155155653235    

 Excitation energy / cm^(-1):             36164.33594354666    


 Oscillator strength:

    velocity representation:             0.1097107264746497E-01

    length representation:               0.9311434210458625E-02

    mixed representation:                0.1006706083013021E-01


 Rotatory strength:

    velocity representation:             0.5663382553049208E-03

    velocity rep. / 10^(-40)erg*cm^3:     36.58817900781035    

    length representation:               0.5273914390716042E-03

    length rep. / 10^(-40)erg*cm^3:       34.07202709544897    


 Dominant contributions:

      occ. orbital   energy / eV   virt. orbital     energy / eV   |coeff.|^2*100
       69 a              -5.54          73 a              -1.11       74.4
       69 a              -5.54          74 a              -1.11        6.2
       68 a              -5.55          73 a              -1.11        5.0
       68 a              -5.55          74 a              -1.11        4.5
 

 Change of electron number:

             0.000000


 Electric transition dipole moment (velocity rep.):

    x       -0.210615        Norm:                  0.316025
    y        0.205871
    z        0.114589        Norm / debye:          0.803263


 Electric transition dipole moment (length rep.):

    x       -0.212325        Norm:                  0.291143
    y        0.176123
    z        0.093074        Norm / debye:          0.740016


 Magnetic transition dipole moment / i:

    x       -0.001645        Norm:                  0.002601
    y       -0.000053
    z        0.002014        Norm / Bohr mag.:      0.712818


 Electric quadrupole transition moment:

   xx       -0.725774
   yy        0.613428        1/3*trace:            -0.018239
   zz        0.057629
   xy       -0.451434
   xz        0.361630        Anisotropy:            1.654265
   yz       -0.353478




                        18 singlet a excitation


 Total energy:                           -850.3653025006555    

 Excitation energy:                      0.1648056449445534    

 Excitation energy / eV:                  4.484591695638600    

 Excitation energy / nm:                  276.4671845756811    

 Excitation energy / cm^(-1):             36170.65806148118    


 Oscillator strength:

    velocity representation:             0.1172391736388773E-01

    length representation:               0.1029374378993088E-01

    mixed representation:                0.1095242832933439E-01


 Rotatory strength:

    velocity representation:             0.4576085377275775E-03

    velocity rep. / 10^(-40)erg*cm^3:     29.56371556582267    

    length representation:               0.4600114489548259E-03

    length rep. / 10^(-40)erg*cm^3:       29.71895520449957    


 Dominant contributions:

      occ. orbital   energy / eV   virt. orbital     energy / eV   |coeff.|^2*100
       68 a              -5.55          73 a              -1.11       39.3
       69 a              -5.54          74 a              -1.11       38.8
       69 a              -5.54          73 a              -1.11       10.6
       64 a              -6.54          70 a              -2.37        2.8
 

 Change of electron number:

             0.000000


 Electric transition dipole moment (velocity rep.):

    x       -0.184279        Norm:                  0.326660
    y       -0.254653
    z        0.088881        Norm / debye:          0.830293


 Electric transition dipole moment (length rep.):

    x       -0.154716        Norm:                  0.306088
    y       -0.252733
    z        0.076674        Norm / debye:          0.778004


 Magnetic transition dipole moment / i:

    x        0.000553        Norm:                  0.002154
    y       -0.001903
    z        0.000844        Norm / Bohr mag.:      0.590363


 Electric quadrupole transition moment:

   xx       -0.403593
   yy        0.474589        1/3*trace:            -0.007025
   zz       -0.092070
   xy        0.938272
   xz        0.264799        Anisotropy:            1.883192
   yz        0.182864




                        19 singlet a excitation


 Total energy:                           -850.3651970058659    

 Excitation energy:                      0.1649111397342143    

 Excitation energy / eV:                  4.487462356153935    

 Excitation energy / nm:                  276.2903266173166    

 Excitation energy / cm^(-1):             36193.81149148278    


 Oscillator strength:

    velocity representation:             0.8238467376850188E-02

    length representation:               0.6044851821361945E-02

    mixed representation:                0.7023663129924331E-02


 Rotatory strength:

    velocity representation:             0.8457313398455550E-03

    velocity rep. / 10^(-40)erg*cm^3:     54.63831793973390    

    length representation:               0.7007803713006365E-03

    length rep. / 10^(-40)erg*cm^3:       45.27378722898133    


 Dominant contributions:

      occ. orbital   energy / eV   virt. orbital     energy / eV   |coeff.|^2*100
       68 a              -5.55          74 a              -1.11       85.4
       69 a              -5.54          73 a              -1.11        6.0
 

 Change of electron number:

            -0.000000


 Electric transition dipole moment (velocity rep.):

    x       -0.181300        Norm:                  0.273744
    y        0.022889
    z       -0.203818        Norm / debye:          0.695792


 Electric transition dipole moment (length rep.):

    x       -0.171273        Norm:                  0.234484
    y        0.013419
    z       -0.159588        Norm / debye:          0.596004


 Magnetic transition dipole moment / i:

    x       -0.001175        Norm:                  0.003537
    y       -0.000919
    z       -0.003207        Norm / Bohr mag.:      0.969459


 Electric quadrupole transition moment:

   xx       -0.413970
   yy        0.552215        1/3*trace:             0.028500
   zz       -0.052744
   xy       -0.078808
   xz        0.244245        Anisotropy:            1.006982
   yz       -0.183874




                        20 singlet a excitation


 Total energy:                           -850.3628429366366    

 Excitation energy:                      0.1672652089633727    

 Excitation energy / eV:                  4.551519866560170    

 Excitation energy / nm:                  272.4018517800515    

 Excitation energy / cm^(-1):             36710.46996619456    


 Oscillator strength:

    velocity representation:             0.1371409889565697E-02

    length representation:               0.3753919210687570E-03

    mixed representation:                0.6671886231097828E-03


 Rotatory strength:

    velocity representation:            -0.3772861214580698E-03

    velocity rep. / 10^(-40)erg*cm^3:    -24.37450060942474    

    length representation:              -0.1572642955200413E-03

    length rep. / 10^(-40)erg*cm^3:      -10.16003093933051    


 Dominant contributions:

      occ. orbital   energy / eV   virt. orbital     energy / eV   |coeff.|^2*100
       68 a              -5.55          73 a              -1.11       33.6
       69 a              -5.54          74 a              -1.11       33.4
       64 a              -6.54          72 a              -2.30       18.7
       66 a              -6.10          73 a              -1.11        2.7
       65 a              -6.10          74 a              -1.11        2.7
 

 Change of electron number:

            -0.000000


 Electric transition dipole moment (velocity rep.):

    x        0.020700        Norm:                  0.110899
    y        0.013147
    z       -0.108154        Norm / debye:          0.281879


 Electric transition dipole moment (length rep.):

    x        0.026008        Norm:                  0.058021
    y        0.019802
    z       -0.047937        Norm / debye:          0.147476


 Magnetic transition dipole moment / i:

    x        0.000330        Norm:                  0.003619
    y        0.000315
    z        0.003590        Norm / Bohr mag.:      0.991806


 Electric quadrupole transition moment:

   xx        0.447995
   yy        0.341413        1/3*trace:             0.183683
   zz       -0.238359
   xy        0.157638
   xz       -0.039725        Anisotropy:            0.704754
   yz       -0.051981


    ------------------------------------------------------------------------
         total  cpu-time : 17 minutes and 48 seconds
         total wall-time :  2 minutes and 38 seconds
    ------------------------------------------------------------------------

   ****  escf : all done  ****


    2018-03-23 10:16:26.478 

