
OPTIMIZATION CYCLE 45
Tue Mar 20 19:44:50 PDT 2018
 operating system is UNIX !

 rdgrad (missouri) : TURBOMOLE V7.2 ( 21454 ) 4 Oct 2017 at 12:24:43
 Copyright (C) 2017 TURBOMOLE GmbH, Karlsruhe


    2018-03-20 19:44:50.358 



                                 r d g r a d

                          gradient for ridft program 

                        by K.Eichkorn, O.Treutler, H.Oehm, 
                             M.Haeser and R.Ahlrichs
                  (Chemical Physics Letters 242 (1995) 652-660)
                    parallel version: M.v.Arnim  &  R.Ahlrichs
                            quantum chemistry group
                             university  karlsruhe
                                   germany




                          References             
                                                 
          Density Functional:                              
              O. Treutler and R. Ahlrichs                      
              Efficient Molecular Numerical Integration Schemes
              J. chem. Phys. 102: 346 (1995)                   
          Parallel Version:                                
              Performance of parallel TURBOMOLE for Density    
              Functional Calculations                          
              M. v.Arnim and R. Ahlrichs                      
              J. comp. Chem. 19: 1746 (1998)                   
          RI-J Method:                                     
              Auxiliary Basis Sets to approximate Coulomb      
              Potentials                                       
              Chem. Phys. Lett. 240: 283 (1995)                
              K. Eichkorn, O. Treutler, H. Oehm, M. Haeser     
              and R. Ahlrichs                                  
              Chem. Phys. Lett. 242: 652 (1995)                
                                                           
              Auxiliary Basis Sets for Main Row Atoms and their
              Use to approximate Coulomb Potentials            
              K. Eichkorn, F. Weigend, O. Treutler and         
              R. Ahlrichs                                      
              Theo. Chem. Acc. 97: 119 (1997)                   
                                         



 integral neglect threshold       :  0.10E-10
 integral storage threshold THIZE :  0.10E-04
 integral storage threshold THIME :         5


 DENSITY CONVERGENCE CHECK SWITCHED ON !
 SCF CONVERGENCE IF RMS(delta[D]) <     0.1000000000E-06

 TPSS meta-GGA functional
 exchange:    LDA + TPSS
 correlation: LDA (PW) + TPSS
 A DFT gradient calculation using the RI-J approximation will be carried out.
  
  
 AUXILIARY BASIS SET information:

 symmetry group of the molecule :   c1 

 the group has the following generators :
   c1(z)

    1 symmetry operations found

 there are 1 real representations :   a   

 maximum number of shells which are related by symmetry :  1


    mo occupation :
   irrep   mo's   occupied
    a      312       69
 
 number of basis functions   :                    312
 number of occupied orbitals :                     69
 

 number of off-diagonal lagrangians expected :  0

 biggest AO integral is expected to be     4.152585025
  
           ------------------
           density functional
           ------------------
 TPSS meta-GGA functional
 exchange:    LDA + TPSS
 correlation: LDA (PW) + TPSS

 iterations will be done with small grid
  
 spherical integration : Lebedev's spherical grid
 spherical gridsize    :                     3
    i.e. gridpoints    :                   302
 value for diffuse not defined
 radial integration    : Chebyshev 2nd kind (scaling 3)
 radial gridsize       :                     3
 integration cells     :                    30
 partition function    : becke
 partition sharpness   :                     3
  
  
           ------------------------
             RDGRAD - INFORMATION
           ------------------------
  
 Threshold for integral neglect (rithr1): 1E-10
 Threshold for integral neglect (rithr2): 1E-10
 Contributions to RI integral batches: 
  neglected integral batches:                  1588
  direct contribution:                         8852
     
 ****************************************
 Memory allocated for RDGRAD: 12 MiB
 ****************************************
                                            
     

 nuclear repulsion energy  :   1570.00271016    

  MOs are in ASCII format !


 reading orbital data $scfmo  from file mos
 orbital characterization : scfconv=7
  Deviation of MOs from orthonormality   8.797975992484372E-012

    ----------------------------------------
     S+T+V CONTRIBUTIONS TO ENERGY GRADIENT 
    ----------------------------------------

 1e-integral 1st. derivatives will be neglected if expon. factor < 0.201056E-13

  _________________________________
 |                                 |
 |         DFTD3 V3.1 Rev 0        |
 | S.Grimme, University Bonn       |
 |            June  2014           |
 |   see standalone version        |
 |       dftd3 -h for options      |
 |_________________________________|
 
 Please cite DFT-D3 work done with this code as:
 S. Grimme, J. Antony, S. Ehrlich and H. Krieg,
 J. Chem. Phys, 132 (2010), 154104.
 If used with BJ-damping cite also
 S. Grimme, S. Ehrlich and L. Goerigk,
 J. Comput. Chem. 32 (2011), 1456-1465
 For DFT-D2 the reference is
 S. Grimme, J. Comput. Chem., 27 (2006), 1787-1799
 
C6 coefficients used:
                     2  C6 for element                      1
Z=  1 CN= 0.912     C6(AA)=    3.03
Z=  1 CN= 0.000     C6(AA)=    7.59
                     5  C6 for element                      6
Z=  6 CN= 0.000     C6(AA)=   49.11
Z=  6 CN= 0.987     C6(AA)=   43.25
Z=  6 CN= 1.998     C6(AA)=   29.36
Z=  6 CN= 2.999     C6(AA)=   25.78
Z=  6 CN= 3.984     C6(AA)=   18.21
                     4  C6 for element                      7
Z=  7 CN= 0.000     C6(AA)=   25.27
Z=  7 CN= 0.994     C6(AA)=   22.12
Z=  7 CN= 2.014     C6(AA)=   19.68
Z=  7 CN= 2.990     C6(AA)=   15.58

#           XYZ [au]              R0(AA) [Ang.]  CN          C6(AA)     C8(AA)   C10(AA) [au]
  1  -1.08585  -2.69385  -1.50437   c   1.455  3.429        22.7       656.2     23249.4
  2  -2.79284  -0.58460  -1.63457   c   1.455  3.398        23.1       669.0     23702.1
  3   1.51218  -2.30741  -1.78704   c   1.455  3.399        23.1       668.8     23694.0
  4   2.48414   0.20731  -2.11728   c   1.455  3.430        22.7       656.2     23248.7
  5   0.82340   2.25766  -2.24369   c   1.455  3.398        23.1       668.9     23698.3
  6  -1.84845   1.86202  -1.95403   c   1.455  3.429        22.7       656.4     23255.6
  7   3.17724  -3.69778  -0.25573   c   1.455  3.353        23.7       685.7     24292.5
  8   2.26226  -5.55510   1.12036   n   1.311  2.158        19.4       428.2     11572.5
  9  -0.12120  -5.99236   1.35810   c   1.455  3.214        24.9       721.5     25563.5
 10  -1.96425  -4.51257   0.23802   c   1.455  3.284        24.4       706.7     25036.7
 11  -4.68124  -3.74257   0.97984   c   1.455  4.140        18.2       527.7     18696.7
 12  -4.78567  -0.96343   0.07930   c   1.455  3.353        23.7       685.7     24292.1
 13  -5.92233   1.02584   1.04468   n   1.311  2.158        19.4       428.2     11572.5
 14  -5.13045   3.30543   0.72060   c   1.455  3.214        24.9       721.6     25565.3
 15  -2.96308   3.88777  -0.62277   c   1.455  3.283        24.4       706.7     25039.3
 16  -0.94189   5.98475  -0.41029   c   1.455  4.140        18.2       527.7     18696.7
 17   1.50993   4.52421  -1.04292   c   1.455  3.353        23.7       685.7     24293.5
 18   5.66611  -2.18190  -0.02886   c   1.455  4.140        18.2       527.7     18696.6
 19   4.82629   0.48460  -0.87046   c   1.455  3.283        24.4       706.7     25037.6
 20   5.41301   2.91027  -0.08759   c   1.455  3.214        24.9       721.6     25564.1
 21   3.82297   4.75275  -0.16070   n   1.311  2.158        19.4       428.2     11572.4
 22   6.41767  -2.21900   1.91984   h   1.091  0.998         3.1        37.4       553.4
 23   7.15419  -2.96115  -1.28622   h   1.091  0.998         3.1        37.4       553.4
 24  -6.11572  -4.91895   0.00027   h   1.091  0.998         3.1        37.4       553.4
 25  -5.03945  -3.90235   3.03170   h   1.091  0.998         3.1        37.4       553.4
 26  -1.28489   7.53524  -1.78166   h   1.091  0.998         3.1        37.4       553.4
 27  -0.85942   6.84311   1.49207   h   1.091  0.998         3.1        37.4       553.4
 28  -6.11250   4.86290   1.76300   h   1.091  0.997         3.1        37.4       553.4
 29   7.27454   3.23229   0.86563   h   1.091  0.997         3.1        37.4       553.4
 30  -0.73169  -7.49463   2.71729   h   1.091  0.997         3.1        37.4       553.4

molecular C6(AA) [au] =     13200.25

           DFT-D V3
 DF tpss                                              
 parameters
 s6       :    1.0000
 s8       :    1.1050
 rs6      :    1.1660
 rs18     :    1.0000
 alpha6   :   14.0000
 alpha8   :   16.0000
 k1-k3    :   16.0000    1.3333   -4.0000
 
 Edisp /kcal,au:   -16.0963 -0.02565104

 E6    /kcal :    -6.9405
 E8    /kcal :    -9.1557
 % E8        : 56.88
 
 doing analytical gradient O(N^2) ...
 
 |G|=  9.742970089868169E-003

 setting up bound for integral derivative estimation

 increment for numerical differentiation : 0.00050000

 biggest AO integral is expected to be     4.152585025
 biggest cartesian 1st derivative AO integral is expected to be     7.019159197
          Overall gridpoints after grid construction =        155868

 Integrated ground state density     :   138.0002359009405    


          ------------------------------------------------
           cartesian gradient of the energy (hartree/bohr)
          ------------------------------------------------

  ATOM      1 c           2 c           3 c           4 c           5 c 
dE/dx -0.6240927D-04 -0.1021040D-06  0.5719007D-04  0.3979065D-05  0.7634972D-04
dE/dy -0.6717179D-04 -0.7257401D-05  0.5141320D-04  0.1967184D-04 -0.2009121D-04
dE/dz  0.5525122D-04 -0.4997255D-04 -0.1419319D-04  0.4734043D-04 -0.4391249D-05

  ATOM      6 c           7 c           8 n           9 c          10 c 
dE/dx -0.2574447D-04 -0.5450435D-05 -0.2121975D-04 -0.1249432D-03  0.6322309D-04
dE/dy  0.6079919D-04 -0.7621772D-05 -0.1035760D-03 -0.9772626D-04  0.1164145D-03
dE/dz -0.4924899D-04  0.5914389D-04 -0.1574189D-03  0.1059571D-03 -0.1032680D-03

  ATOM     11 c          12 c          13 n          14 c          15 c 
dE/dx -0.1533040D-03 -0.3118334D-04  0.8241872D-04  0.7281185D-04 -0.7297991D-04
dE/dy -0.1034397D-03  0.1528592D-03 -0.2358800D-04  0.7059110D-04  0.7508629D-05
dE/dz -0.6216104D-06 -0.4117285D-04  0.4172798D-04  0.3478567D-04 -0.1178903D-04

  ATOM     16 c          17 c          18 c          19 c          20 c 
dE/dx  0.1169115D-03  0.4538780D-04 -0.7543197D-04  0.7483440D-04  0.1979439D-04
dE/dy  0.2682749D-04 -0.2913947D-04 -0.1674306D-04 -0.1796729D-04 -0.2457414D-04
dE/dz  0.7525972D-04  0.5709970D-05  0.4175241D-05 -0.2194607D-04 -0.1333434D-03

  ATOM     21 n          22 h          23 h          24 h          25 h 
dE/dx -0.7671338D-04 -0.1764938D-04 -0.3018328D-04 -0.9506079D-05 -0.1372580D-04
dE/dy -0.6500789D-04 -0.4887103D-04 -0.5477230D-04  0.2969544D-04  0.5177242D-04
dE/dz  0.7425477D-05 -0.1436890D-04  0.2058236D-04 -0.2210227D-04  0.7292620D-05

  ATOM     26 h          27 h          28 h          29 h          30 h 
dE/dx  0.3055947D-04  0.3363952D-04 -0.2210491D-05 -0.1627566D-05 -0.2493984D-04
dE/dy  0.4049021D-04 -0.1570811D-04 -0.1990689D-04 -0.6200635D-04  0.8629815D-04
dE/dz -0.3976601D-04 -0.6373805D-04 -0.9830687D-04 -0.5613946D-05  0.4809290D-05
 
 resulting FORCE  (fx,fy,fz) = (-.722D-04,-.708D-04,-.362D-03)
 resulting MOMENT (mx,my,mz) = (-.502D-03,-.617D-03,-.616D-02)


 exx =      -0.000222 eyy =       0.000133 ezz =      -0.000199
 eyz =      -0.000400 exz =      -0.000236 exy =      -0.000010


 **********************************************************************
  |maximum component of gradient| : 0.15741887E-03  (atom  8 n )       
   gradient norm                  : 0.57782321E-03
 **********************************************************************
   ***  cartesian gradients written onto <gradient>  ***


     --- calculation of the energy gradient finished ---



    ------------------------------------------------------------------------
         total  cpu-time :  12.16 seconds
         total wall-time :  12.16 seconds
    ------------------------------------------------------------------------

   ****  rdgrad : all done  ****


    2018-03-20 19:45:02.502 

 rdgrad ended normally
fine, there is no data group "$actual step"
next step = relax

 statpt (missouri) : TURBOMOLE V7.2 ( 21454 ) 2 Oct 2017 at 16:43:05
 Copyright (C) 2017 TURBOMOLE GmbH, Karlsruhe


    2018-03-20 19:45:02.534 



                           this is S T A T P T   


                     hessian and coordinate update for
                          stationary point search 

                     by barbara unterreiner, marek sierka,
                           and reinhart ahlrichs

                          quantum chemistry group
                          universitaet  karlsruhe
                                  germany




              +--------------------------------------------------+
              | Atomic coordinate, charge and isotop information |
              +--------------------------------------------------+

                    atomic coordinates            atom    charge  isotop
         -1.08585251   -2.69385472   -1.50436854    c      6.000     0
         -2.79283671   -0.58460283   -1.63456876    c      6.000     0
          1.51218127   -2.30740602   -1.78704040    c      6.000     0
          2.48414213    0.20731208   -2.11727679    c      6.000     0
          0.82339777    2.25766388   -2.24368666    c      6.000     0
         -1.84844703    1.86201741   -1.95402978    c      6.000     0
          3.17723800   -3.69778060   -0.25573499    c      6.000     0
          2.26226035   -5.55509551    1.12036096    n      7.000     0
         -0.12120256   -5.99235865    1.35809839    c      6.000     0
         -1.96424917   -4.51256850    0.23801920    c      6.000     0
         -4.68123922   -3.74257411    0.97984041    c      6.000     0
         -4.78566697   -0.96343297    0.07930287    c      6.000     0
         -5.92233156    1.02583588    1.04468003    n      7.000     0
         -5.13044927    3.30543385    0.72060199    c      6.000     0
         -2.96308314    3.88777161   -0.62276849    c      6.000     0
         -0.94188524    5.98475426   -0.41029319    c      6.000     0
          1.50992947    4.52420956   -1.04291594    c      6.000     0
          5.66611243   -2.18190402   -0.02886489    c      6.000     0
          4.82628914    0.48459528   -0.87045858    c      6.000     0
          5.41301161    2.91027188   -0.08758620    c      6.000     0
          3.82297069    4.75275114   -0.16070122    n      7.000     0
          6.41766913   -2.21900317    1.91984482    h      1.000     0
          7.15419499   -2.96115007   -1.28622496    h      1.000     0
         -6.11571884   -4.91895469    0.00027085    h      1.000     0
         -5.03945230   -3.90234773    3.03170488    h      1.000     0
         -1.28488948    7.53524477   -1.78165871    h      1.000     0
         -0.85942395    6.84311295    1.49206543    h      1.000     0
         -6.11249867    4.86290478    1.76300316    h      1.000     0
          7.27454122    3.23228576    0.86563096    h      1.000     0
         -0.73169351   -7.49462654    2.71728923    h      1.000     0
 
       center of nuclear mass  :   -0.02937370   -0.04088315   -0.36463360
       center of nuclear charge:   -0.02588866   -0.03603485   -0.32137738
  Keyword $statpt not found - using default options
 
        ***************  Stationary point options ******************
        ************************************************************
           Maximum allowed trust radius:           3.000000E-01
           Minimum allowed trust radius:           1.000000E-03
           Initial trust radius:                   1.500000E-01
           GDIIS used if gradient norm <           1.000000E-02
           Number of previous steps for GDIIS:       5
           Hessian update method:                  BFGS
                        *** Convergence criteria ***                
           Threshold for energy change:            1.000000E-06
           Threshold for max displacement element: 1.000000E-03
           Threshold for max gradient element :    1.000000E-03
           Threshold for RMS of displacement:      5.000000E-04
           Threshold for RMS of gradient:          5.000000E-04
        ************************************************************
 

 keyword $statp missing in file <control>

  Keyword $statpt not found - using default options
     Number of symmetry restricted degrees of freedom:    90
     Constituted by:     3 translational degrees of freedom
                         3 rotational degrees of freedom
                      84 internal degrees of freedom

  *************************************************************************
   ATOM                      CARTESIAN COORDINATES
    1 c      -1.08585250876766     -2.69385471887207     -1.50436853657282
    2 c      -2.79283670924311     -0.58460283497460     -1.63456875855138
    3 c       1.51218126640180     -2.30740601982864     -1.78704039683089
    4 c       2.48414213409353      0.20731208005645     -2.11727678595919
    5 c       0.82339777158084      2.25766388098169     -2.24368665936532
    6 c      -1.84844702787499      1.86201740595207     -1.95402977771532
    7 c       3.17723799502015     -3.69778059568264     -0.25573499105427
    8 n       2.26226035281127     -5.55509550772253      1.12036095798316
    9 c      -0.12120256439423     -5.99235865494872      1.35809838743770
   10 c      -1.96424917025573     -4.51256849522856      0.23801920004718
   11 c      -4.68123921838327     -3.74257410655803      0.97984040955261
   12 c      -4.78566696836138     -0.96343297486231      0.07930287363901
   13 n      -5.92233155967059      1.02583587787590      1.04468002512411
   14 c      -5.13044927328593      3.30543384745922      0.72060199055277
   15 c      -2.96308314287745      3.88777160847521     -0.62276848593706
   16 c      -0.94188524105764      5.98475426040978     -0.41029319005261
   17 c       1.50992946701231      4.52420956222940     -1.04291593728181
   18 c       5.66611243348601     -2.18190402041224     -0.02886488856030
   19 c       4.82628913817998      0.48459527853136     -0.87045857900983
   20 c       5.41301161439910      2.91027187699532     -0.08758619861202
   21 n       3.82297068782802      4.75275114114182     -0.16070121650615
   22 h       6.41766912900099     -2.21900317011035      1.91984482146981
   23 h       7.15419498599643     -2.96115006861633     -1.28622496354166
   24 h      -6.11571884460161     -4.91895468634027      0.00027085367287
   25 h      -5.03945229505319     -3.90234773451625      3.03170488084007
   26 h      -1.28488948192047      7.53524477498147     -1.78165871121561
   27 h      -0.85942395487434      6.84311295324677      1.49206542720878
   28 h      -6.11249866658579      4.86290477649946      1.76300316249654
   29 h       7.27454121805075      3.23228576262091      0.86563095816976
   30 h      -0.73169350707433     -7.49462653590440      2.71728922632294
  *************************************************************************
   ATOM                      CARTESIAN GRADIENTS  
    1 c      -0.00006240927010     -0.00006717178776      0.00005525121606
    2 c      -0.00000010210403     -0.00000725740070     -0.00004997255249
    3 c       0.00005719007034      0.00005141319959     -0.00001419319150
    4 c       0.00000397906453      0.00001967183938      0.00004734042938
    5 c       0.00007634971662     -0.00002009121359     -0.00000439124864
    6 c      -0.00002574447056      0.00006079918942     -0.00004924898723
    7 c      -0.00000545043528     -0.00000762177208      0.00005914388654
    8 n      -0.00002121975107     -0.00010357600408     -0.00015741886899
    9 c      -0.00012494320103     -0.00009772626041      0.00010595708709
   10 c       0.00006322308857      0.00011641453983     -0.00010326795300
   11 c      -0.00015330401830     -0.00010343967772     -0.00000062161043
   12 c      -0.00003118334416      0.00015285918894     -0.00004117284907
   13 n       0.00008241871845     -0.00002358799619      0.00004172797938
   14 c       0.00007281184832      0.00007059110383      0.00003478567407
   15 c      -0.00007297991278      0.00000750862886     -0.00001178902509
   16 c       0.00011691152256      0.00002682749283      0.00007525971687
   17 c       0.00004538779896     -0.00002913947172      0.00000570996968
   18 c      -0.00007543196757     -0.00001674306180      0.00000417524076
   19 c       0.00007483439872     -0.00001796729201     -0.00002194606585
   20 c       0.00001979438706     -0.00002457413549     -0.00013334343028
   21 n      -0.00007671337941     -0.00006500789499      0.00000742547720
   22 h      -0.00001764937598     -0.00004887102916     -0.00001436890241
   23 h      -0.00003018328085     -0.00005477229510      0.00002058235883
   24 h      -0.00000950607868      0.00002969544114     -0.00002210227103
   25 h      -0.00001372580440      0.00005177242164      0.00000729261997
   26 h       0.00003055947217      0.00004049020845     -0.00003976601033
   27 h       0.00003363952344     -0.00001570810805     -0.00006373804527
   28 h      -0.00000221049070     -0.00001990688544     -0.00009830687450
   29 h      -0.00000162756649     -0.00006200634665     -0.00000561394636
   30 h      -0.00002493983839      0.00008629814554      0.00000480928952
  *************************************************************************

  norm of actual CARTESIAN gradient:  5.77823E-04
  norm of actual INTERNAL  gradient:  3.33298E-04

  ENERGY =    -850.5301078542 a.u.; # of cycle =   46

  Approximate Hessian read from $hessapprox data section

  Hessian updated according to BFGS formula
  Number of zero Hessian eigenvalues:   0
  Number of structures for GDIIS interpolation:    5
  GDIIS step:     0.002052

  Transforming internal coordinate displacements to Cartesian space
      Iteration   1 residual norm     2.051734E-03
      Iteration   2 residual norm     3.990012E-07
      Iteration   3 residual norm     1.018945E-14
      Transformation converged
      Residual norm:    1.018945E-14 after    3 iterations

      ****************************************************************** 
                          CONVERGENCE INFORMATION

                               Converged?     Value      Criterion
             Energy change         yes      0.0000002   0.0000010
             RMS of displacement   yes      0.0002239   0.0005000
             RMS of gradient       yes      0.0000364   0.0005000
             MAX displacement      yes      0.0005933   0.0010000
             MAX gradient          yes      0.0001175   0.0010000
      ****************************************************************** 


    ------------------------------------------------------------------------
         total  cpu-time :   0.15 seconds
         total wall-time :   0.15 seconds
    ------------------------------------------------------------------------

   ****  statpt : all done  ****


    2018-03-20 19:45:02.676 

  statpt ended normally
fine, there is no data group "$actual step"
next step = ridft
 operating system is UNIX !

 ridft (missouri) : TURBOMOLE V7.2 ( 21454 ) 4 Oct 2017 at 12:48:15
 Copyright (C) 2017 TURBOMOLE GmbH, Karlsruhe


    2018-03-20 19:45:02.699 



                                  r i d f t

                        DFT program with RI approximation 
                                for coulomb part 




                                                 
                                 References:     
                                                 
          TURBOMOLE:                             
              R. Ahlrichs, M. Baer, M. Haeser, H. Horn, and
              C. Koelmel
              Electronic structure calculations on workstation
              computers: the program system TURBOMOLE
              Chem. Phys. Lett. 162: 165 (1989)
          Density Functional:                              
              O. Treutler and R. Ahlrichs                      
              Efficient Molecular Numerical Integration Schemes
              J. Chem. Phys. 102: 346 (1995)                   
          Parallel Version:                                
              Performance of parallel TURBOMOLE for Density    
              Functional Calculations                          
              M. v. Arnim and R. Ahlrichs                      
              J. Comp. Chem. 19: 1746 (1998)                   
          RI-J Method:                                     
              Auxiliary Basis Sets to approximate Coulomb      
              Potentials                                       
              Chem. Phys. Lett. 240: 283 (1995)                
              K. Eichkorn, O. Treutler, H. Oehm, M. Haeser     
              and R. Ahlrichs                                  
              Chem. Phys. Lett. 242: 652 (1995)                
                                                           
              Auxiliary Basis Sets for Main Row Atoms and their
              Use to approximate Coulomb Potentials            
              K. Eichkorn, F. Weigend, O. Treutler and         
              R. Ahlrichs                                      
              Theo. Chem. Acc. 97: 119 (1997)                   
                                                           
              Accurate Coulomb-fitting basis sets for H to Rn 
              F. Weigend                                        
              Phys. Chem. Chem. Phys. 8: 1057 (2006)            
                                                           
          Multipole accelerated RI-J (MARI-J):             
              Fast evaluation of the Coulomb potential for     
              electron densities using multipole accelerated   
              resolution of identity approximation             
              M. Sierka, A. Hogekamp and R. Ahlrichs           
              J. Chem. Phys. 118: 9136 (2003)                  
          RI-JK Method:                                     
              A fully direct RI-HF algorithm: Implementation,
              optimised auxiliary basis sets, demonstration of
              accuracy and efficiency                         
              F. Weigend                                      
              Phys. Chem. Chem. Phys. 4: 4285 (2002)           
          Two-component HF and DFT with spin-orbit coupling:  
              Self-consistent treatment of spin-orbit         
              interactions with efficient Hartree-Fock and    
              density functional methods                      
              M. K. Armbruster, F. Weigend, C. van Wüllen and 
              W. Klopper                                      
              Phys. Chem. Chem. Phys. 10: 1748 (2008)         
          Relativistic all-electron 2c calculations           
              An efficient implementation of two-component    
              relativistic exact-decoupling methods for large 
              molecules                                       
              D. Peng, N. Middendorf, F. Weigend, M. Reiher   
              J. Chem. Phys. 138, 184105 (2013)               
                                         




              +--------------------------------------------------+
              |      general information about current run       |
              +--------------------------------------------------+

 

 DENSITY CONVERGENCE CHECK SWITCHED ON !
 SCF CONVERGENCE IF RMS(delta[D]) <     0.1000000000E-06

 TPSS meta-GGA functional
 exchange:    LDA + TPSS
 correlation: LDA (PW) + TPSS
 A DFT calculation using the RI-J approximation will be carried out.
 Allocatable memory for RI due to $ricore (MB):                   500


              +--------------------------------------------------+
              | Atomic coordinate, charge and isotop information |
              +--------------------------------------------------+

                    atomic coordinates            atom    charge  isotop
         -1.08589378   -2.69390623   -1.50426373    c      6.000     0
         -2.79274565   -0.58465363   -1.63423919    c      6.000     0
          1.51213342   -2.30751613   -1.78695527    c      6.000     0
          2.48405279    0.20721432   -2.11742451    c      6.000     0
          0.82332891    2.25765097   -2.24382770    c      6.000     0
         -1.84839214    1.86181861   -1.95387137    c      6.000     0
          3.17734417   -3.69780267   -0.25558931    c      6.000     0
          2.26221522   -5.55494527    1.12066952    n      7.000     0
         -0.12122258   -5.99222709    1.35835269    c      6.000     0
         -1.96430590   -4.51248811    0.23837339    c      6.000     0
         -4.68135420   -3.74243936    0.97970040    c      6.000     0
         -4.78569325   -0.96347850    0.07947981    c      6.000     0
         -5.92225759    1.02582162    1.04495945    n      7.000     0
         -5.13034784    3.30537628    0.72078263    c      6.000     0
         -2.96298760    3.88774478   -0.62285513    c      6.000     0
         -0.94194129    5.98474845   -0.41061643    c      6.000     0
          1.50993777    4.52426382   -1.04307804    c      6.000     0
          5.66617612   -2.18181866   -0.02875491    c      6.000     0
          4.82608447    0.48469943   -0.87011105    c      6.000     0
          5.41295894    2.91036625   -0.08726386    c      6.000     0
          3.82307233    4.75287128   -0.16077289    n      7.000     0
          6.41828636   -2.21911561    1.91987933    h      1.000     0
          7.15403284   -2.96073956   -1.28665224    h      1.000     0
         -6.11579009   -4.91859062   -0.00029594    h      1.000     0
         -5.03994679   -3.90295193    3.03134584    h      1.000     0
         -1.28481724    7.53489205   -1.78216636    h      1.000     0
         -0.85965424    6.84349550    1.49164792    h      1.000     0
         -6.11203928    4.86297749    1.76366950    h      1.000     0
          7.27472993    3.23242349    0.86565145    h      1.000     0
         -0.73194575   -7.49518604    2.71676109    h      1.000     0
 
       center of nuclear mass  :   -0.02937796   -0.04087048   -0.36454391
       center of nuclear charge:   -0.02589232   -0.03602353   -0.32129809

              +--------------------------------------------------+
              |               basis set information              |
              +--------------------------------------------------+

              we will work with the 1s 3p 5d 7f 9g ... basis set
              ...i.e. with spherical basis functions...

   type   atoms  prim   cont   basis
   ---------------------------------------------------------------------------
    c       18     24     14   def2-SV(P)   [3s2p1d|7s4p1d]
    n        3     24     14   def2-SV(P)   [3s2p1d|7s4p1d]
    h        9      4      2   def2-SV(P)   [2s|4s]
   ---------------------------------------------------------------------------
   total:   30    540    312
   ---------------------------------------------------------------------------

   total number of primitive shells          :   28
   total number of contracted shells         :  144
   total number of cartesian basis functions :  333
   total number of SCF-basis functions       :  312


 integral neglect threshold       :  0.10E-10
 integral storage threshold THIZE :  0.10E-04
 integral storage threshold THIME :         5

 RI-J AUXILIARY BASIS SET information:

              we will work with the 1s 3p 5d 7f 9g ... basis set
              ...i.e. with spherical basis functions...

   type   atoms  prim   cont   basis
   ---------------------------------------------------------------------------
    c       18     70     49   def2-SV(P)   [6s4p3d1f1g|12s5p4d2f1g]
    n        3     70     49   def2-SV(P)   [6s4p3d1f1g|12s5p4d2f1g]
    h        9     16     11   def2-SV(P)   [3s1p1d|5s2p1d]
   ---------------------------------------------------------------------------
   total:   30   1614   1128
   ---------------------------------------------------------------------------

   total number of primitive shells          :   56
   total number of contracted shells         :  360
   total number of cartesian basis functions : 1389
   total number of SCF-basis functions       : 1128


 symmetry group of the molecule :   c1 

 the group has the following generators :
   c1(z)

    1 symmetry operations found

 there are 1 real representations :   a   

 maximum number of shells which are related by symmetry :  1


    mo occupation :
   irrep   mo's   occupied
    a      312       69
 
 number of basis functions   :                    312
 number of occupied orbitals :                     69
 
  
           ------------------
           density functional
           ------------------
 TPSS meta-GGA functional
 exchange:    LDA + TPSS
 correlation: LDA (PW) + TPSS

 iterations will be done with small grid
  
 spherical integration : Lebedev's spherical grid
 spherical gridsize    :                     3
    i.e. gridpoints    :                   302
 value for diffuse not defined
 radial integration    : Chebyshev 2nd kind (scaling 3)
 radial gridsize       :                     3
 integration cells     :                    30
 partition function    : becke
 partition sharpness   :                     3
  

 biggest AO integral is expected to be     4.152585025
  
           ------------------------
               RI-J - INFORMATION
           ------------------------
 Contributions to RI integral batches: 
  neglected integral batches:                  1588
  direct contribution:                           84
  memory contribution:                  8768
 Memory core needed for (P|Q) and Cholesky     10 MByte
 Memory core minimum needed except of (P|Q)     1 MByte
 Total minimum memory core needed (sum)        11 MByte
  
 ****************************************
 Memory allocated for RI-J   492 MByte
 ****************************************
                                            

          ------------------------
          nuclear repulsion energy  :   1570.00248515    
          ------------------------

  _________________________________
 |                                 |
 |         DFTD3 V3.1 Rev 0        |
 | S.Grimme, University Bonn       |
 |            June  2014           |
 |   see standalone version        |
 |       dftd3 -h for options      |
 |_________________________________|
 
 Please cite DFT-D3 work done with this code as:
 S. Grimme, J. Antony, S. Ehrlich and H. Krieg,
 J. Chem. Phys, 132 (2010), 154104.
 If used with BJ-damping cite also
 S. Grimme, S. Ehrlich and L. Goerigk,
 J. Comput. Chem. 32 (2011), 1456-1465
 For DFT-D2 the reference is
 S. Grimme, J. Comput. Chem., 27 (2006), 1787-1799
 
C6 coefficients used:
                     2  C6 for element                      1
Z=  1 CN= 0.912     C6(AA)=    3.03
Z=  1 CN= 0.000     C6(AA)=    7.59
                     5  C6 for element                      6
Z=  6 CN= 0.000     C6(AA)=   49.11
Z=  6 CN= 0.987     C6(AA)=   43.25
Z=  6 CN= 1.998     C6(AA)=   29.36
Z=  6 CN= 2.999     C6(AA)=   25.78
Z=  6 CN= 3.984     C6(AA)=   18.21
                     4  C6 for element                      7
Z=  7 CN= 0.000     C6(AA)=   25.27
Z=  7 CN= 0.994     C6(AA)=   22.12
Z=  7 CN= 2.014     C6(AA)=   19.68
Z=  7 CN= 2.990     C6(AA)=   15.58

#           XYZ [au]              R0(AA) [Ang.]  CN          C6(AA)     C8(AA)   C10(AA) [au]
  1  -1.08589  -2.69391  -1.50426   c   1.455  3.430        22.7       656.2     23249.0
  2  -2.79275  -0.58465  -1.63424   c   1.455  3.398        23.1       668.9     23700.3
  3   1.51213  -2.30752  -1.78696   c   1.455  3.399        23.1       668.8     23694.5
  4   2.48405   0.20721  -2.11742   c   1.455  3.429        22.7       656.3     23250.7
  5   0.82333   2.25765  -2.24383   c   1.455  3.398        23.1       668.9     23698.5
  6  -1.84839   1.86182  -1.95387   c   1.455  3.429        22.7       656.4     23255.1
  7   3.17734  -3.69780  -0.25559   c   1.455  3.353        23.7       685.7     24293.4
  8   2.26222  -5.55495   1.12067   n   1.311  2.158        19.4       428.2     11572.5
  9  -0.12122  -5.99223   1.35835   c   1.455  3.214        24.9       721.5     25563.6
 10  -1.96431  -4.51249   0.23837   c   1.455  3.284        24.4       706.7     25036.2
 11  -4.68135  -3.74244   0.97970   c   1.455  4.140        18.2       527.7     18696.7
 12  -4.78569  -0.96348   0.07948   c   1.455  3.353        23.7       685.6     24291.6
 13  -5.92226   1.02582   1.04496   n   1.311  2.158        19.4       428.2     11572.6
 14  -5.13035   3.30538   0.72078   c   1.455  3.214        24.9       721.6     25565.4
 15  -2.96299   3.88774  -0.62286   c   1.455  3.283        24.4       706.7     25039.1
 16  -0.94194   5.98475  -0.41062   c   1.455  4.140        18.2       527.7     18696.7
 17   1.50994   4.52426  -1.04308   c   1.455  3.353        23.7       685.7     24293.9
 18   5.66618  -2.18182  -0.02875   c   1.455  4.140        18.2       527.7     18696.7
 19   4.82608   0.48470  -0.87011   c   1.455  3.283        24.4       706.7     25037.5
 20   5.41296   2.91037  -0.08726   c   1.455  3.214        24.9       721.6     25564.8
 21   3.82307   4.75287  -0.16077   n   1.311  2.158        19.4       428.2     11572.5
 22   6.41829  -2.21912   1.91988   h   1.091  0.998         3.1        37.4       553.4
 23   7.15403  -2.96074  -1.28665   h   1.091  0.998         3.1        37.4       553.4
 24  -6.11579  -4.91859  -0.00030   h   1.091  0.998         3.1        37.4       553.4
 25  -5.03995  -3.90295   3.03135   h   1.091  0.998         3.1        37.4       553.4
 26  -1.28482   7.53489  -1.78217   h   1.091  0.998         3.1        37.4       553.4
 27  -0.85965   6.84350   1.49165   h   1.091  0.998         3.1        37.4       553.4
 28  -6.11204   4.86298   1.76367   h   1.091  0.997         3.1        37.4       553.4
 29   7.27473   3.23242   0.86565   h   1.091  0.997         3.1        37.4       553.4
 30  -0.73195  -7.49519   2.71676   h   1.091  0.997         3.1        37.4       553.4

molecular C6(AA) [au] =     13200.26

           DFT-D V3
 DF tpss                                              
 parameters
 s6       :    1.0000
 s8       :    1.1050
 rs6      :    1.1660
 rs18     :    1.0000
 alpha6   :   14.0000
 alpha8   :   16.0000
 k1-k3    :   16.0000    1.3333   -4.0000
 
 Edisp /kcal,au:   -16.0962 -0.02565099

 E6    /kcal :    -6.9405
 E8    /kcal :    -9.1558
 % E8        : 56.88
 nuclear repulsion energy                  =    1570.002485150
 empirical dispersive energy correction    =      -0.025650985
 nuclear repulsion + dispersion correction =    1569.976834165


         -----------------
         -S,T+V- integrals
         -----------------

 1e-integrals will be neglected if expon. factor < 0.100359E-11
 
   Difference densities algorithm switched on.
   The maximal number of linear combinations of
   difference densities is                    20 .

 DIIS switched on: error vector is FDS-SDF
 Max. Iterations for DIIS is     :   4
 DIIS matrix (see manual) 
    Scaling factor of diagonals  :  1.200
    threshold for scaling factor :  0.000

 scf convergence criterion : increment of total energy < .1000000D-06
                  and increment of one-electron energy < .1000000D-03

  MOs are in ASCII format !


 automatic virtual orbital shift switched on 
      shift if e(lumo)-e(homo) < 0.10000000    


 reading orbital data $scfmo  from file mos
 orbital characterization : scfconv=7

 DSCF restart information will be dumped onto file mos


 Starting SCF iterations

          Overall gridpoints after grid construction =         43551

 ITERATION  ENERGY          1e-ENERGY        2e-ENERGY     RMS[dD(SAO)]   TOL
   1  -850.52678564336    -4267.5436197     1847.0399999    0.000D+00 0.100D-10
                            Exc = -121.314247024     Coul =  1968.35424696    
                              N = 137.99884006    
                            current damping = 0.700
 
          max. resid. norm for Fia-block=  2.620D-04 for orbital      3a         
          max. resid. fock norm         =  4.170D-04 for orbital      1a         

 ITERATION  ENERGY          1e-ENERGY        2e-ENERGY     RMS[dD(SAO)]   TOL
   2  -850.52678582578    -4267.5437125     1847.0400926    0.775D-05 0.635D-11
                            Exc = -121.314199351     Coul =  1968.35429190    
                              N = 137.99884006    
                            current damping = 0.650
 
          Norm of current diis error: 0.51710E-03
          max. resid. norm for Fia-block=  1.082D-04 for orbital      3a         
          max. resid. fock norm         =  1.728D-04 for orbital      1a         

 ITERATION  ENERGY          1e-ENERGY        2e-ENERGY     RMS[dD(SAO)]   TOL
   3  -850.52678584157    -4267.5425512     1847.0389312    0.381D-05 0.494D-11
                            Exc = -121.314210538     Coul =  1968.35314176    
                              N = 137.99884008    
                            current damping = 0.700
 
          Norm of current diis error: 0.41525E-03
          max. resid. norm for Fia-block=  4.270D-05 for orbital      3a         
          max. resid. fock norm         =  6.943D-05 for orbital      3a         

 ITERATION  ENERGY          1e-ENERGY        2e-ENERGY     RMS[dD(SAO)]   TOL
   4  -850.52678586357    -4267.5437812     1847.0401611    0.211D-05 0.466D-11
                            Exc = -121.314195204     Coul =  1968.35435634    
                              N = 137.99884007    
                            current damping = 0.750
 
          Norm of current diis error: 0.13673E-03
          max. resid. norm for Fia-block=  1.751D-05 for orbital      3a         
          max. resid. fock norm         =  2.897D-05 for orbital      1a         

 ITERATION  ENERGY          1e-ENERGY        2e-ENERGY     RMS[dD(SAO)]   TOL
   5  -850.52678586580    -4267.5433039     1847.0396839    0.739D-06 0.453D-11
                            Exc = -121.314196138     Coul =  1968.35388000    
                              N = 137.99884008    
                            current damping = 0.800
 
          Norm of current diis error: 0.56279E-04
          max. resid. norm for Fia-block=  7.520D-06 for orbital      3a         
          max. resid. fock norm         =  1.278D-05 for orbital      1a         
          mo-orthogonalization: Cholesky decomposition

 ENERGY & DENSITY CONVERGED !

          Overall gridpoints after grid construction =        155868

 ITERATION  ENERGY          1e-ENERGY        2e-ENERGY     RMS[dD(SAO)]   TOL
   6  -850.53010814562    -4267.5433608     1847.0364185    0.275D-06 0.441D-11
                            Exc = -121.317516330     Coul =  1968.35393481    
                              N = 138.00023566    
                            current damping = 0.850
 
          Norm of current diis error: 0.17883E-04
          max. resid. norm for Fia-block=  3.344D-06 for orbital      3a         
          max. resid. fock norm         =  5.327D-06 for orbital      1a         

 End of SCF iterations

   convergence criteria satisfied after     6 iterations


                  ------------------------------------------ 
                 |  total energy      =   -850.53010814562  |
                  ------------------------------------------ 
                 :  kinetic energy    =    834.49091378292  :
                 :  potential energy  =  -1685.02102192853  :
                 :  virial theorem    =      1.98114212042  :
                 :  wavefunction norm =      1.00000000000  :
                  .......................................... 


 orbitals $scfmo  will be written to file mos

    irrep                 65a         66a         67a         68a         69a   
 eigenvalues H         -0.22434    -0.22434    -0.21518    -0.20382    -0.20375
            eV          -6.1047     -6.1046     -5.8554     -5.5463     -5.5444
 occupation              2.0000      2.0000      2.0000      2.0000      2.0000 

    irrep                 70a         71a         72a         73a         74a   
 eigenvalues H         -0.08700    -0.08698    -0.08464    -0.04089    -0.04084
            eV          -2.3674     -2.3669     -2.3032     -1.1126     -1.1112
 
 
 
 
 ==============================================================================
                           electrostatic moments
 ==============================================================================

 reference point for electrostatic moments:    0.00000   0.00000   0.00000

 
              nuc           elec       ->  total
 ------------------------------------------------------------------------------
                          charge      
 ------------------------------------------------------------------------------
         138.000000    -138.000000      -0.000000
 
 ------------------------------------------------------------------------------
                       dipole moment  
 ------------------------------------------------------------------------------
   x      -3.573140       3.560105      -0.013035
   y      -4.971247       4.955985      -0.015261
   z     -44.339136      44.191271      -0.147865
 
   | dipole moment | =     0.1492 a.u. =     0.3793 debye 
 
 ------------------------------------------------------------------------------
                     quadrupole moment
 ------------------------------------------------------------------------------
  xx    1851.711764   -1939.531277     -87.819513
  yy    1841.688629   -1929.531848     -87.843220
  zz     211.741975    -299.515025     -87.773050
  xy     -14.735691      14.738031       0.002340
  xz    -133.219964     133.234009       0.014045
  yz    -185.027896     185.039060       0.011163
 
     1/3  trace=     -87.811927
     anisotropy=       0.069314
 
 ==============================================================================
 


    ------------------------------------------------------------------------
         total  cpu-time :  13.93 seconds
         total wall-time :  13.94 seconds
    ------------------------------------------------------------------------

   ****  ridft : all done  ****


    2018-03-20 19:45:16.625 

 ridft ended normally
fine, there is no data group "$actual step"
next step = rdgrad
 energy change  : actual value =  -0.2005E-06 threshold =   0.1000E-05
 geom. gradient : actual value =   0.1175E-03 threshold =   0.1000E-02

CONVERGENCY CRITERIA FULFILLED IN CYCLE 45

