[Molden Format]
[Title]
                                                                                
[Atoms] AU
 c     1    6 -.10858937780087E+01 -.26939062313554E+01 -.15042637301721E+01
 c     2    6 -.27927456505905E+01 -.58465363096824E+00 -.16342391949594E+01
 c     3    6 0.15121334210204E+01 -.23075161327869E+01 -.17869552708362E+01
 c     4    6 0.24840527928452E+01 0.20721431789707E+00 -.21174245075578E+01
 c     5    6 0.82332890680776E+00 0.22576509697742E+01 -.22438277044414E+01
 c     6    6 -.18483921403528E+01 0.18618186116040E+01 -.19538713656097E+01
 c     7    6 0.31773441674001E+01 -.36978026743962E+01 -.25558930553116E+00
 n     8    7 0.22622152171778E+01 -.55549452707750E+01 0.11206695228257E+01
 c     9    6 -.12122257854896E+00 -.59922270856913E+01 0.13583526913103E+01
 c    10    6 -.19643058991781E+01 -.45124881060263E+01 0.23837338698481E+00
 c    11    6 -.46813541964104E+01 -.37424393574031E+01 0.97970039794415E+00
 c    12    6 -.47856932531684E+01 -.96347849695733E+00 0.79479808055180E-01
 n    13    7 -.59222575940387E+01 0.10258216179373E+01 0.10449594455672E+01
 c    14    6 -.51303478395418E+01 0.33053762817543E+01 0.72078262668367E+00
 c    15    6 -.29629875958898E+01 0.38877447787010E+01 -.62285512653535E+00
 c    16    6 -.94194129188905E+00 0.59847484467097E+01 -.41061642660116E+00
 c    17    6 0.15099377708197E+01 0.45242638216631E+01 -.10430780422798E+01
 c    18    6 0.56661761175575E+01 -.21818186607064E+01 -.28754906837190E-01
 c    19    6 0.48260844677884E+01 0.48469943152359E+00 -.87011104908889E+00
 c    20    6 0.54129589402370E+01 0.29103662541690E+01 -.87263862170170E-01
 n    21    7 0.38230723337130E+01 0.47528712810304E+01 -.16077289043821E+00
 h    22    1 0.64182863596757E+01 -.22191156054493E+01 0.19198793263537E+01
 h    23    1 0.71540328363283E+01 -.29607395586184E+01 -.12866522357248E+01
 h    24    1 -.61157900865387E+01 -.49185906151039E+01 -.29593920600000E-03
 h    25    1 -.50399467850283E+01 -.39029519272621E+01 0.30313458396710E+01
 h    26    1 -.12848172362821E+01 0.75348920507852E+01 -.17821663555333E+01
 h    27    1 -.85965424344564E+00 0.68434955035625E+01 0.14916479226182E+01
 h    28    1 -.61120392767259E+01 0.48629774937277E+01 0.17636695011890E+01
 h    29    1 0.72747299254729E+01 0.32324234915839E+01 0.86565144818182E+00
 h    30    1 -.73194575162653E+00 -.74951860360440E+01 0.27167610938890E+01
[GTO]
    1 0
 s    5 1.00
 0.12384016938000E+04 0.55173650481097E-02
 0.18629004992000E+03 0.41088828555946E-01
 0.42251176346000E+02 0.18225382126490E+00
 0.11676557932000E+02 0.46828459437429E+00
 0.35930506482000E+01 0.44575817336002E+00
 s    1 1.00
 0.40245147363000E+00 0.10000000000000E+01
 s    1 1.00
 0.13090182668000E+00 0.10000000000000E+01
 p    3 1.00
 0.94680970621000E+01 0.56888332011037E-01
 0.20103545142000E+01 0.31294059336471E+00
 0.54771004707000E+00 0.76065016509135E+00
 p    1 1.00
 0.15268613795000E+00 0.10000000000000E+01
 d    1 1.00
 0.80000000000000E+00 0.10000000000000E+01
 
    2 0
 s    5 1.00
 0.12384016938000E+04 0.55173650481097E-02
 0.18629004992000E+03 0.41088828555946E-01
 0.42251176346000E+02 0.18225382126490E+00
 0.11676557932000E+02 0.46828459437429E+00
 0.35930506482000E+01 0.44575817336002E+00
 s    1 1.00
 0.40245147363000E+00 0.10000000000000E+01
 s    1 1.00
 0.13090182668000E+00 0.10000000000000E+01
 p    3 1.00
 0.94680970621000E+01 0.56888332011037E-01
 0.20103545142000E+01 0.31294059336471E+00
 0.54771004707000E+00 0.76065016509135E+00
 p    1 1.00
 0.15268613795000E+00 0.10000000000000E+01
 d    1 1.00
 0.80000000000000E+00 0.10000000000000E+01
 
    3 0
 s    5 1.00
 0.12384016938000E+04 0.55173650481097E-02
 0.18629004992000E+03 0.41088828555946E-01
 0.42251176346000E+02 0.18225382126490E+00
 0.11676557932000E+02 0.46828459437429E+00
 0.35930506482000E+01 0.44575817336002E+00
 s    1 1.00
 0.40245147363000E+00 0.10000000000000E+01
 s    1 1.00
 0.13090182668000E+00 0.10000000000000E+01
 p    3 1.00
 0.94680970621000E+01 0.56888332011037E-01
 0.20103545142000E+01 0.31294059336471E+00
 0.54771004707000E+00 0.76065016509135E+00
 p    1 1.00
 0.15268613795000E+00 0.10000000000000E+01
 d    1 1.00
 0.80000000000000E+00 0.10000000000000E+01
 
    4 0
 s    5 1.00
 0.12384016938000E+04 0.55173650481097E-02
 0.18629004992000E+03 0.41088828555946E-01
 0.42251176346000E+02 0.18225382126490E+00
 0.11676557932000E+02 0.46828459437429E+00
 0.35930506482000E+01 0.44575817336002E+00
 s    1 1.00
 0.40245147363000E+00 0.10000000000000E+01
 s    1 1.00
 0.13090182668000E+00 0.10000000000000E+01
 p    3 1.00
 0.94680970621000E+01 0.56888332011037E-01
 0.20103545142000E+01 0.31294059336471E+00
 0.54771004707000E+00 0.76065016509135E+00
 p    1 1.00
 0.15268613795000E+00 0.10000000000000E+01
 d    1 1.00
 0.80000000000000E+00 0.10000000000000E+01
 
    5 0
 s    5 1.00
 0.12384016938000E+04 0.55173650481097E-02
 0.18629004992000E+03 0.41088828555946E-01
 0.42251176346000E+02 0.18225382126490E+00
 0.11676557932000E+02 0.46828459437429E+00
 0.35930506482000E+01 0.44575817336002E+00
 s    1 1.00
 0.40245147363000E+00 0.10000000000000E+01
 s    1 1.00
 0.13090182668000E+00 0.10000000000000E+01
 p    3 1.00
 0.94680970621000E+01 0.56888332011037E-01
 0.20103545142000E+01 0.31294059336471E+00
 0.54771004707000E+00 0.76065016509135E+00
 p    1 1.00
 0.15268613795000E+00 0.10000000000000E+01
 d    1 1.00
 0.80000000000000E+00 0.10000000000000E+01
 
    6 0
 s    5 1.00
 0.12384016938000E+04 0.55173650481097E-02
 0.18629004992000E+03 0.41088828555946E-01
 0.42251176346000E+02 0.18225382126490E+00
 0.11676557932000E+02 0.46828459437429E+00
 0.35930506482000E+01 0.44575817336002E+00
 s    1 1.00
 0.40245147363000E+00 0.10000000000000E+01
 s    1 1.00
 0.13090182668000E+00 0.10000000000000E+01
 p    3 1.00
 0.94680970621000E+01 0.56888332011037E-01
 0.20103545142000E+01 0.31294059336471E+00
 0.54771004707000E+00 0.76065016509135E+00
 p    1 1.00
 0.15268613795000E+00 0.10000000000000E+01
 d    1 1.00
 0.80000000000000E+00 0.10000000000000E+01
 
    7 0
 s    5 1.00
 0.12384016938000E+04 0.55173650481097E-02
 0.18629004992000E+03 0.41088828555946E-01
 0.42251176346000E+02 0.18225382126490E+00
 0.11676557932000E+02 0.46828459437429E+00
 0.35930506482000E+01 0.44575817336002E+00
 s    1 1.00
 0.40245147363000E+00 0.10000000000000E+01
 s    1 1.00
 0.13090182668000E+00 0.10000000000000E+01
 p    3 1.00
 0.94680970621000E+01 0.56888332011037E-01
 0.20103545142000E+01 0.31294059336471E+00
 0.54771004707000E+00 0.76065016509135E+00
 p    1 1.00
 0.15268613795000E+00 0.10000000000000E+01
 d    1 1.00
 0.80000000000000E+00 0.10000000000000E+01
 
    8 0
 s    5 1.00
 0.12384016938000E+04 0.55173650481097E-02
 0.18629004992000E+03 0.41088828555946E-01
 0.42251176346000E+02 0.18225382126490E+00
 0.11676557932000E+02 0.46828459437429E+00
 0.35930506482000E+01 0.44575817336002E+00
 s    1 1.00
 0.40245147363000E+00 0.10000000000000E+01
 s    1 1.00
 0.13090182668000E+00 0.10000000000000E+01
 p    3 1.00
 0.94680970621000E+01 0.56888332011037E-01
 0.20103545142000E+01 0.31294059336471E+00
 0.54771004707000E+00 0.76065016509135E+00
 p    1 1.00
 0.15268613795000E+00 0.10000000000000E+01
 d    1 1.00
 0.80000000000000E+00 0.10000000000000E+01
 
    9 0
 s    5 1.00
 0.17128415853000E+04 -.54477995804909E-02
 0.25764812677000E+03 -.40627174632423E-01
 0.58458245853000E+02 -.18111962250584E+00
 0.16198367905000E+02 -.46843975563173E+00
 0.50052600809000E+01 -.44616846289231E+00
 s    1 1.00
 0.58731856571000E+00 0.10000000000000E+01
 s    1 1.00
 0.18764592253000E+00 0.10000000000000E+01
 p    3 1.00
 0.13571470233000E+02 -.58848116969522E-01
 0.29257372874000E+01 -.32024624762471E+00
 0.79927750754000E+00 -.75328226520436E+00
 p    1 1.00
 0.21954348034000E+00 0.10000000000000E+01
 d    1 1.00
 0.10000000000000E+01 0.10000000000000E+01
 
   10 0
 s    5 1.00
 0.12384016938000E+04 0.55173650481097E-02
 0.18629004992000E+03 0.41088828555946E-01
 0.42251176346000E+02 0.18225382126490E+00
 0.11676557932000E+02 0.46828459437429E+00
 0.35930506482000E+01 0.44575817336002E+00
 s    1 1.00
 0.40245147363000E+00 0.10000000000000E+01
 s    1 1.00
 0.13090182668000E+00 0.10000000000000E+01
 p    3 1.00
 0.94680970621000E+01 0.56888332011037E-01
 0.20103545142000E+01 0.31294059336471E+00
 0.54771004707000E+00 0.76065016509135E+00
 p    1 1.00
 0.15268613795000E+00 0.10000000000000E+01
 d    1 1.00
 0.80000000000000E+00 0.10000000000000E+01
 
   11 0
 s    5 1.00
 0.12384016938000E+04 0.55173650481097E-02
 0.18629004992000E+03 0.41088828555946E-01
 0.42251176346000E+02 0.18225382126490E+00
 0.11676557932000E+02 0.46828459437429E+00
 0.35930506482000E+01 0.44575817336002E+00
 s    1 1.00
 0.40245147363000E+00 0.10000000000000E+01
 s    1 1.00
 0.13090182668000E+00 0.10000000000000E+01
 p    3 1.00
 0.94680970621000E+01 0.56888332011037E-01
 0.20103545142000E+01 0.31294059336471E+00
 0.54771004707000E+00 0.76065016509135E+00
 p    1 1.00
 0.15268613795000E+00 0.10000000000000E+01
 d    1 1.00
 0.80000000000000E+00 0.10000000000000E+01
 
   12 0
 s    5 1.00
 0.12384016938000E+04 0.55173650481097E-02
 0.18629004992000E+03 0.41088828555946E-01
 0.42251176346000E+02 0.18225382126490E+00
 0.11676557932000E+02 0.46828459437429E+00
 0.35930506482000E+01 0.44575817336002E+00
 s    1 1.00
 0.40245147363000E+00 0.10000000000000E+01
 s    1 1.00
 0.13090182668000E+00 0.10000000000000E+01
 p    3 1.00
 0.94680970621000E+01 0.56888332011037E-01
 0.20103545142000E+01 0.31294059336471E+00
 0.54771004707000E+00 0.76065016509135E+00
 p    1 1.00
 0.15268613795000E+00 0.10000000000000E+01
 d    1 1.00
 0.80000000000000E+00 0.10000000000000E+01
 
   13 0
 s    5 1.00
 0.12384016938000E+04 0.55173650481097E-02
 0.18629004992000E+03 0.41088828555946E-01
 0.42251176346000E+02 0.18225382126490E+00
 0.11676557932000E+02 0.46828459437429E+00
 0.35930506482000E+01 0.44575817336002E+00
 s    1 1.00
 0.40245147363000E+00 0.10000000000000E+01
 s    1 1.00
 0.13090182668000E+00 0.10000000000000E+01
 p    3 1.00
 0.94680970621000E+01 0.56888332011037E-01
 0.20103545142000E+01 0.31294059336471E+00
 0.54771004707000E+00 0.76065016509135E+00
 p    1 1.00
 0.15268613795000E+00 0.10000000000000E+01
 d    1 1.00
 0.80000000000000E+00 0.10000000000000E+01
 
   14 0
 s    5 1.00
 0.17128415853000E+04 -.54477995804909E-02
 0.25764812677000E+03 -.40627174632423E-01
 0.58458245853000E+02 -.18111962250584E+00
 0.16198367905000E+02 -.46843975563173E+00
 0.50052600809000E+01 -.44616846289231E+00
 s    1 1.00
 0.58731856571000E+00 0.10000000000000E+01
 s    1 1.00
 0.18764592253000E+00 0.10000000000000E+01
 p    3 1.00
 0.13571470233000E+02 -.58848116969522E-01
 0.29257372874000E+01 -.32024624762471E+00
 0.79927750754000E+00 -.75328226520436E+00
 p    1 1.00
 0.21954348034000E+00 0.10000000000000E+01
 d    1 1.00
 0.10000000000000E+01 0.10000000000000E+01
 
   15 0
 s    5 1.00
 0.12384016938000E+04 0.55173650481097E-02
 0.18629004992000E+03 0.41088828555946E-01
 0.42251176346000E+02 0.18225382126490E+00
 0.11676557932000E+02 0.46828459437429E+00
 0.35930506482000E+01 0.44575817336002E+00
 s    1 1.00
 0.40245147363000E+00 0.10000000000000E+01
 s    1 1.00
 0.13090182668000E+00 0.10000000000000E+01
 p    3 1.00
 0.94680970621000E+01 0.56888332011037E-01
 0.20103545142000E+01 0.31294059336471E+00
 0.54771004707000E+00 0.76065016509135E+00
 p    1 1.00
 0.15268613795000E+00 0.10000000000000E+01
 d    1 1.00
 0.80000000000000E+00 0.10000000000000E+01
 
   16 0
 s    5 1.00
 0.12384016938000E+04 0.55173650481097E-02
 0.18629004992000E+03 0.41088828555946E-01
 0.42251176346000E+02 0.18225382126490E+00
 0.11676557932000E+02 0.46828459437429E+00
 0.35930506482000E+01 0.44575817336002E+00
 s    1 1.00
 0.40245147363000E+00 0.10000000000000E+01
 s    1 1.00
 0.13090182668000E+00 0.10000000000000E+01
 p    3 1.00
 0.94680970621000E+01 0.56888332011037E-01
 0.20103545142000E+01 0.31294059336471E+00
 0.54771004707000E+00 0.76065016509135E+00
 p    1 1.00
 0.15268613795000E+00 0.10000000000000E+01
 d    1 1.00
 0.80000000000000E+00 0.10000000000000E+01
 
   17 0
 s    5 1.00
 0.12384016938000E+04 0.55173650481097E-02
 0.18629004992000E+03 0.41088828555946E-01
 0.42251176346000E+02 0.18225382126490E+00
 0.11676557932000E+02 0.46828459437429E+00
 0.35930506482000E+01 0.44575817336002E+00
 s    1 1.00
 0.40245147363000E+00 0.10000000000000E+01
 s    1 1.00
 0.13090182668000E+00 0.10000000000000E+01
 p    3 1.00
 0.94680970621000E+01 0.56888332011037E-01
 0.20103545142000E+01 0.31294059336471E+00
 0.54771004707000E+00 0.76065016509135E+00
 p    1 1.00
 0.15268613795000E+00 0.10000000000000E+01
 d    1 1.00
 0.80000000000000E+00 0.10000000000000E+01
 
   18 0
 s    5 1.00
 0.12384016938000E+04 0.55173650481097E-02
 0.18629004992000E+03 0.41088828555946E-01
 0.42251176346000E+02 0.18225382126490E+00
 0.11676557932000E+02 0.46828459437429E+00
 0.35930506482000E+01 0.44575817336002E+00
 s    1 1.00
 0.40245147363000E+00 0.10000000000000E+01
 s    1 1.00
 0.13090182668000E+00 0.10000000000000E+01
 p    3 1.00
 0.94680970621000E+01 0.56888332011037E-01
 0.20103545142000E+01 0.31294059336471E+00
 0.54771004707000E+00 0.76065016509135E+00
 p    1 1.00
 0.15268613795000E+00 0.10000000000000E+01
 d    1 1.00
 0.80000000000000E+00 0.10000000000000E+01
 
   19 0
 s    5 1.00
 0.12384016938000E+04 0.55173650481097E-02
 0.18629004992000E+03 0.41088828555946E-01
 0.42251176346000E+02 0.18225382126490E+00
 0.11676557932000E+02 0.46828459437429E+00
 0.35930506482000E+01 0.44575817336002E+00
 s    1 1.00
 0.40245147363000E+00 0.10000000000000E+01
 s    1 1.00
 0.13090182668000E+00 0.10000000000000E+01
 p    3 1.00
 0.94680970621000E+01 0.56888332011037E-01
 0.20103545142000E+01 0.31294059336471E+00
 0.54771004707000E+00 0.76065016509135E+00
 p    1 1.00
 0.15268613795000E+00 0.10000000000000E+01
 d    1 1.00
 0.80000000000000E+00 0.10000000000000E+01
 
   20 0
 s    5 1.00
 0.17128415853000E+04 -.54477995804909E-02
 0.25764812677000E+03 -.40627174632423E-01
 0.58458245853000E+02 -.18111962250584E+00
 0.16198367905000E+02 -.46843975563173E+00
 0.50052600809000E+01 -.44616846289231E+00
 s    1 1.00
 0.58731856571000E+00 0.10000000000000E+01
 s    1 1.00
 0.18764592253000E+00 0.10000000000000E+01
 p    3 1.00
 0.13571470233000E+02 -.58848116969522E-01
 0.29257372874000E+01 -.32024624762471E+00
 0.79927750754000E+00 -.75328226520436E+00
 p    1 1.00
 0.21954348034000E+00 0.10000000000000E+01
 d    1 1.00
 0.10000000000000E+01 0.10000000000000E+01
 
   21 0
 s    5 1.00
 0.12384016938000E+04 0.55173650481097E-02
 0.18629004992000E+03 0.41088828555946E-01
 0.42251176346000E+02 0.18225382126490E+00
 0.11676557932000E+02 0.46828459437429E+00
 0.35930506482000E+01 0.44575817336002E+00
 s    1 1.00
 0.40245147363000E+00 0.10000000000000E+01
 s    1 1.00
 0.13090182668000E+00 0.10000000000000E+01
 p    3 1.00
 0.94680970621000E+01 0.56888332011037E-01
 0.20103545142000E+01 0.31294059336471E+00
 0.54771004707000E+00 0.76065016509135E+00
 p    1 1.00
 0.15268613795000E+00 0.10000000000000E+01
 d    1 1.00
 0.80000000000000E+00 0.10000000000000E+01
 
   22 0
 s    3 1.00
 0.13010701000000E+02 0.33485484812989E-01
 0.19622572000000E+01 0.23472187088125E+00
 0.44453796000000E+00 0.81377028525955E+00
 s    1 1.00
 0.12194962000000E+00 0.10000000000000E+01
 
   23 0
 s    3 1.00
 0.13010701000000E+02 0.33485484812989E-01
 0.19622572000000E+01 0.23472187088125E+00
 0.44453796000000E+00 0.81377028525955E+00
 s    1 1.00
 0.12194962000000E+00 0.10000000000000E+01
 
   24 0
 s    3 1.00
 0.13010701000000E+02 0.33485484812989E-01
 0.19622572000000E+01 0.23472187088125E+00
 0.44453796000000E+00 0.81377028525955E+00
 s    1 1.00
 0.12194962000000E+00 0.10000000000000E+01
 
   25 0
 s    3 1.00
 0.13010701000000E+02 0.33485484812989E-01
 0.19622572000000E+01 0.23472187088125E+00
 0.44453796000000E+00 0.81377028525955E+00
 s    1 1.00
 0.12194962000000E+00 0.10000000000000E+01
 
   26 0
 s    3 1.00
 0.13010701000000E+02 0.33485484812989E-01
 0.19622572000000E+01 0.23472187088125E+00
 0.44453796000000E+00 0.81377028525955E+00
 s    1 1.00
 0.12194962000000E+00 0.10000000000000E+01
 
   27 0
 s    3 1.00
 0.13010701000000E+02 0.33485484812989E-01
 0.19622572000000E+01 0.23472187088125E+00
 0.44453796000000E+00 0.81377028525955E+00
 s    1 1.00
 0.12194962000000E+00 0.10000000000000E+01
 
   28 0
 s    3 1.00
 0.13010701000000E+02 0.33485484812989E-01
 0.19622572000000E+01 0.23472187088125E+00
 0.44453796000000E+00 0.81377028525955E+00
 s    1 1.00
 0.12194962000000E+00 0.10000000000000E+01
 
   29 0
 s    3 1.00
 0.13010701000000E+02 0.33485484812989E-01
 0.19622572000000E+01 0.23472187088125E+00
 0.44453796000000E+00 0.81377028525955E+00
 s    1 1.00
 0.12194962000000E+00 0.10000000000000E+01
 
   30 0
 s    3 1.00
 0.13010701000000E+02 0.33485484812989E-01
 0.19622572000000E+01 0.23472187088125E+00
 0.44453796000000E+00 0.81377028525955E+00
 s    1 1.00
 0.12194962000000E+00 0.10000000000000E+01
 
[MO]
 Sym=     1a   
 Ene= -.14239941881035E+02
 Spin= Alpha
 Occup= 2.000000
     1 0.20216369615275E-03
     2 -.36890424337081E-02
     3 -.43055585215183E-01
     4 -.12864651783487E-03
     5 0.38017045797509E-03
     6 -.46486424608122E-03
     7 0.74735689098395E-03
     8 -.34124160806967E-02
     9 0.15904551567793E-02
    10 0.11194179574873E-03
    11 -.76566327415414E-04
    12 -.35375468333313E-04
    13 0.22150500643107E-03
    14 -.46269167285655E-03
    15 0.23730770500308E-03
    16 -.95029942126812E-04
    17 0.30420508098452E-02
    18 -.35740200518054E-01
    19 0.40929173043077E-04
    20 0.13642397567589E-02
    21 0.30143205959087E-04
    22 0.13993291540316E-02
    23 -.63457678313677E-01
    24 0.11902968059728E-02
    25 0.23308965819851E-03
    26 -.51155331402239E-03
    27 0.27846365582388E-03
    28 -.37568439914149E-03
    29 0.34685645525735E-03
    30 -.34259435542540E-03
    31 -.13510416980945E-04
    32 -.13643966939390E-03
    33 0.24420136789906E-01
    34 0.49126534923090E-03
    35 0.19975809703000E-03
    36 0.72389714058322E-03
    37 -.57697179094287E-02
    38 -.20221540021732E-02
    39 0.15082965908517E-02
    40 0.56986644082880E-04
    41 0.67756518042674E-05
    42 -.63762295887148E-04
    43 -.54219962950185E-04
    44 0.38840111002041E-04
    45 0.13045764601962E-03
    46 0.28076549286114E-03
    47 -.27627542138212E-02
    48 -.83406681621470E-01
    49 -.21577277534872E-03
    50 -.10754071249862E-02
    51 -.21718579340692E-03
    52 -.10105716496510E-01
    53 -.17523834183901E-01
    54 -.10258351744485E-01
    55 -.19781657833630E-03
    56 0.90815843626812E-04
    57 0.10700073470949E-03
    58 -.12049179601955E-04
    59 -.26815663964777E-03
    60 0.20119509519050E-03
    61 0.94792876698220E-04
    62 -.20828787612275E-02
    63 -.12201470946066E-02
    64 -.76326754851192E-03
    65 0.27666498738824E-03
    66 -.87709181108727E-03
    67 0.39728767074631E-01
    68 -.25614271377233E-01
    69 -.56700501787694E-03
    70 0.14119169367955E-03
    71 0.13121080254624E-03
    72 -.27240249622579E-03
    73 -.34580897175612E-03
    74 0.62502128771540E-03
    75 0.68654240925182E-05
    76 -.49827216317331E-03
    77 0.61447043636507E-02
    78 0.14188418765321E+00
    79 -.14082961261187E-02
    80 -.16370175069834E-03
    81 0.92000317381121E-03
    82 -.23358014672056E-01
    83 -.12614211851440E-02
    84 0.19439164844101E-01
    85 0.14752914033937E-03
    86 -.74352383953304E-04
    87 -.73176756386062E-04
    88 -.15204687197753E-03
    89 -.37720108878617E-03
    90 0.19185942984534E-03
    91 0.56197270157582E-03
    92 -.19084538818809E-02
    93 -.57470791241705E-02
    94 0.10495160114489E-03
    95 0.26592597771481E-02
    96 -.21706632109565E-02
    97 0.17304018682105E-01
    98 0.41308691746016E-02
    99 0.10732319063008E-02
   100 0.63688855989100E-03
   101 -.67437150386340E-03
   102 0.37482943972398E-04
   103 -.75557412677270E-03
   104 0.59615510001507E-03
   105 0.16397192243493E-02
   106 -.18373378044177E+00
   107 0.29108379453462E-01
   108 0.92443052882793E-02
   109 -.35865825531842E-02
   110 0.20055947003103E-02
   111 -.16974165974300E-02
   112 -.10220110365212E-01
   113 -.95653011298425E-05
   114 -.10742526775744E-02
   115 0.89888464197453E-03
   116 -.24339806212757E-03
   117 -.65548657984697E-03
   118 0.10072088211707E-02
   119 -.67604519646335E-03
   120 -.83883552561418E-03
   121 -.81043270506323E-04
   122 0.27154786227812E-02
   123 -.36650307585125E-01
   124 0.96769638215807E-03
   125 -.30513570617879E-03
   126 0.17746923625743E-03
   127 -.12918366240113E-01
   128 -.10535948529711E-01
   129 0.77712023897825E-02
   130 -.19714239877527E-02
   131 0.90798383116977E-03
   132 0.10634401565830E-02
   133 -.42156902755677E-03
   134 0.14483170802085E-03
   135 0.24178385544112E-03
   136 -.17772314296565E-04
   137 -.11737879749256E-02
   138 -.96461430661096E-02
   139 -.11238297470602E-02
   140 -.45919218189140E-03
   141 0.88172651205074E-04
   142 0.40491525553558E-01
   143 -.13515085307118E-02
   144 -.31783667202078E-02
   145 -.20752289169651E-03
   146 0.33090229155198E-03
   147 -.12337939985548E-03
   148 -.33234761801097E-03
   149 0.21990331180119E-03
   150 -.22471296350549E-03
   151 -.33982712135104E-03
   152 0.27603679695224E-02
   153 0.89228917571067E-01
   154 -.17836134693948E-03
   155 0.32260537488436E-02
   156 0.24094798117311E-03
   157 0.16739940120588E-01
   158 0.60940881576679E-02
   159 -.28430962715037E-01
   160 0.64176819526995E-03
   161 -.60422464715016E-04
   162 -.58134573055494E-03
   163 0.58556377303994E-05
   164 0.38805735703753E-03
   165 -.16164415349829E-03
   166 -.29543113026771E-02
   167 0.16280938270557E-01
   168 0.13283953781824E-01
   169 -.71215638855580E-02
   170 0.80261525416304E-02
   171 0.64346302119259E-02
   172 -.21655208961696E-01
   173 0.97493380590003E-01
   174 0.10734804321309E-01
   175 -.12383732502920E-02
   176 0.35029631329881E-02
   177 -.22645898826960E-02
   178 -.59586898466046E-02
   179 -.33112249843744E-02
   180 0.53459698228527E-02
   181 0.84071167536710E+00
   182 -.12966209735085E+00
   183 -.70391563714233E-01
   184 -.13843749952251E-01
   185 -.35413992624472E-02
   186 0.90833234786269E-02
   187 -.25375919341724E-01
   188 -.21025949987170E-01
   189 0.19916586185628E-01
   190 0.35297870240239E-02
   191 -.80604472916121E-02
   192 0.45306602675883E-02
   193 0.32984500400308E-03
   194 0.20250907990201E-02
   195 -.18323259894155E-02
   196 0.52776312019058E-03
   197 -.46561106987201E-02
   198 0.98258719448529E-01
   199 0.24193171613203E-02
   200 0.51970467556173E-02
   201 -.16233453168307E-02
   202 -.94246527149915E-02
   203 -.63278571763544E-01
   204 -.37293529362132E-02
   205 -.28067100076236E-02
   206 0.70619251849551E-02
   207 -.42552151773316E-02
   208 0.50850622635413E-02
   209 -.11845186701349E-02
   210 -.22253642021259E-02
   211 0.10935148173964E-05
   212 0.51628317804755E-02
   213 -.35234824125565E-01
   214 -.19026970881180E-03
   215 -.25496586912762E-02
   216 -.31298326484968E-03
   217 0.17527076447573E-01
   218 0.85481824623930E-01
   219 0.13185974734864E-01
   220 -.36396808920752E-04
   221 -.52942354595044E-03
   222 0.56582035487119E-03
   223 0.16038393037295E-03
   224 0.75544011008480E-03
   225 -.29448575517085E-04
   226 0.30981316560365E-03
   227 -.12259467422921E-02
   228 -.96965629418010E-01
   229 -.16044622683392E-02
   230 0.15829454616744E-02
   231 -.78353112892006E-03
   232 0.19887448280882E-01
   233 0.22233226018836E-01
   234 0.19631733876286E-01
   235 -.47353152667567E-03
   236 -.32957738381344E-05
   237 0.47682730051381E-03
   238 -.40034916830437E-03
   239 0.37475844242190E-03
   240 0.60171330717373E-03
   241 0.20443088028960E-02
   242 -.12458029090783E-01
   243 -.75158729425223E-03
   244 -.65368237773480E-02
   245 -.19004210100141E-02
   246 -.33412199161992E-02
   247 -.76790100772097E-01
   248 0.61271848013183E-02
   249 -.18425232782686E-01
   250 -.47786736513030E-02
   251 0.30440892186982E-02
   252 0.17345844326048E-02
   253 -.14397894553723E-02
   254 -.37749937778050E-02
   255 -.36245745411133E-03
   256 0.10422455217885E-04
   257 -.11282114541005E-02
   258 0.94302118706494E-02
   259 0.25880119018378E-03
   260 0.92818783013115E-03
   261 0.20553384028615E-04
   262 0.71460974771342E-02
   263 0.11605228459127E-01
   264 -.37774864859272E-03
   265 -.22842005512485E-03
   266 0.29722258219033E-03
   267 -.68802527065478E-04
   268 0.18726847592623E-03
   269 -.14069911633333E-03
   270 -.63589200653122E-04
   271 0.29398817893515E-04
   272 -.36517211437434E-02
   273 0.35624155184648E-01
   274 0.10910155559580E-02
   275 -.44061764247819E-03
   276 0.57672150136197E-03
   277 -.39199746945062E-01
   278 0.14066527917168E-01
   279 -.18642519725759E-01
   280 0.47180280104362E-03
   281 0.56674988529635E-04
   282 -.52847778957326E-03
   283 -.41769359296929E-03
   284 0.31957878736402E-03
   285 0.22282601951669E-03
   286 -.38412450832299E-03
   287 0.16326893842205E-02
   288 -.51793953683246E-01
   289 -.26447779146893E-02
   290 0.33970588287516E-02
   291 0.39484500954157E-03
   292 0.29064403115406E-01
   293 -.27220484040089E-01
   294 0.60940206440883E-02
   295 -.58644932029810E-03
   296 -.24526486079538E-02
   297 0.30390979282519E-02
   298 0.51309313187610E-02
   299 -.15514310225286E-03
   300 0.49887190374533E-04
   301 -.56206137825569E+00
   302 0.86510548172165E-01
   303 0.55738457863393E-01
   304 -.32077361800707E-02
   305 -.96083953246855E-02
   306 -.36209884419936E-02
   307 -.16104813510422E-02
   308 -.22830559223988E-01
   309 -.97623802231180E-02
   310 0.38487043856859E-02
   311 -.54701115820006E-03
   312 -.33016932274859E-02
   313 -.32806627163201E-02
   314 0.24300202941478E-02
   315 -.43304535150766E-04
   316 -.67217830996975E-03
   317 -.17486510043361E-02
   318 -.97315528057120E-03
   319 -.14275149756697E-02
   320 -.41535180762359E-02
   321 -.77188776055922E-02
   322 0.29681222119751E-02
   323 -.23591127034195E-02
   324 0.51740497958721E-02
   325 0.91285225108889E-02
   326 -.19951251959593E-02
   327 0.41544951070287E-02
   328 0.44636966661688E-02
   329 -.13918461084703E-02
   330 -.23076669628624E-02
   331 0.10784122763953E-02
   332 -.19586782539636E-02
   333 0.18460892068966E-03
 Sym=     2a   
 Ene= -.14239815859854E+02
 Spin= Alpha
 Occup= 2.000000
     1 0.44252113398859E-03
     2 -.52581066872691E-02
     3 -.12342420352491E+00
     4 -.10482544792725E-02
     5 0.97222832205334E-03
     6 -.68287995642727E-03
     7 -.12849214942969E-01
     8 0.15881547746922E-01
     9 -.15962291885181E-01
    10 0.10769823084827E-03
    11 -.12304466692590E-03
    12 0.15346436077628E-04
    13 0.54830070751241E-04
    14 0.12922927014297E-03
    15 0.34989681079231E-03
    16 -.67441479190491E-04
    17 0.14457323502643E-02
    18 0.97419031954516E-02
    19 -.27339746513910E-04
    20 0.36734986384369E-03
    21 0.96246231074389E-03
    22 0.13773983717814E-02
    23 -.27615774303282E-01
    24 0.14547295941306E-02
    25 0.19804844782080E-03
    26 -.32527314127788E-03
    27 0.12722469345709E-03
    28 -.12436989409954E-03
    29 0.27630118354178E-03
    30 -.31528621577241E-03
    31 0.10325757743883E-03
    32 -.26011828706966E-02
    33 0.14546664951665E-01
    34 0.98136086724188E-03
    35 0.48873651201997E-03
    36 -.74008663708071E-03
    37 -.52480022507133E-01
    38 -.27143492303752E-01
    39 0.82755800514225E-02
    40 0.48169691658349E-03
    41 -.40317614178144E-03
    42 -.78520774802053E-04
    43 0.77349835472077E-04
    44 -.38359998156820E-03
    45 -.54734761380829E-03
    46 -.41249222074100E-03
    47 0.55729014811746E-02
    48 0.11346841927329E+00
    49 0.53272498891081E-03
    50 0.10826805704379E-02
    51 0.54237302623928E-03
    52 0.61248985361752E-02
    53 0.17142871593305E-01
    54 0.92865035733567E-02
    55 0.79102977304851E-06
    56 0.13409244711847E-03
    57 -.13488347689152E-03
    58 0.31281763902438E-03
    59 0.17768910313092E-03
    60 0.33952671004445E-03
    61 -.52622214902238E-04
    62 0.21758235123748E-02
    63 -.39854031750596E-01
    64 0.88999359820955E-03
    65 -.62979761354219E-03
    66 -.31790585751222E-03
    67 -.40032121838054E-01
    68 0.19546745736375E-01
    69 -.49239103010106E-02
    70 -.25331963314714E-05
    71 -.21035615453671E-03
    72 0.21288935086818E-03
    73 0.29364668000584E-03
    74 -.29481521039872E-03
    75 0.15928520981174E-04
    76 -.49240392937413E-04
    77 -.69171110197010E-03
    78 0.29128480640076E-01
    79 -.36035369342766E-03
    80 -.30069635394610E-03
    81 0.15075660178625E-04
    82 -.15765278691891E-01
    83 0.10368690336239E-02
    84 0.11674592417944E-01
    85 -.11580489422660E-03
    86 0.32298303497991E-03
    87 -.20717814075331E-03
    88 0.12347276494096E-04
    89 0.27353463433301E-03
    90 0.31162003796605E-03
    91 0.27357850662325E-02
    92 -.15779519457922E-01
    93 -.51663990490811E-02
    94 0.18108725769744E-02
    95 0.82284344860721E-02
    96 -.69712722244982E-02
    97 0.60575945030536E-01
    98 0.69376832527509E-01
    99 -.38440629007492E-01
   100 0.30564970653568E-02
   101 -.30489029865347E-02
   102 -.75940788221219E-05
   103 -.34861055951155E-02
   104 0.29147869935182E-02
   105 0.64071654426717E-02
   106 -.76861773038383E+00
   107 0.11869950674893E+00
   108 0.70492391956668E-01
   109 -.10189411670130E-01
   110 0.88024651713674E-02
   111 -.70199829189435E-02
   112 -.28900019984133E-01
   113 0.11654283483476E-01
   114 -.14598341553603E-01
   115 0.39191048472987E-02
   116 -.96015246777103E-03
   117 -.29589523795276E-02
   118 0.45741281683458E-02
   119 -.30424637065581E-02
   120 -.38948162264004E-02
   121 -.49932362821120E-03
   122 0.34885822115835E-02
   123 -.82304047509964E-01
   124 0.55813503758262E-02
   125 0.64448672962805E-03
   126 0.26064056202407E-03