 operating system is UNIX !

 force (c-17-28.gp.local) : TURBOMOLE V7.2 ( 21454 ) 4 Oct 2017 at 12:24:43
 Copyright (C) 2017 TURBOMOLE GmbH, Karlsruhe


    2018-03-04 02:07:54.839 



                             T U R B O M O L E   

                          a o f o r c e - program

                        using direct algorithms for

                       SCF level calculations of
                         * harmonic force constants
                         * hyperpolarizabilities
                         * IR and RAMAN intensities
                         * VCD intensities

                       DFT level calculations of
                         * harmonic force constants
                         * IR intensities
                                                   
       Stephan Boecker, Peter Deglmann, Filipp Furche and Marco Haeser
                          Quantum Chemistry Group
                          Universitaet  Karlsruhe
                                   Germany

 
 
 
 
     References :
 
       RI-J implementation:
         Peter Deglmann, Klaus May, Filipp Furche, Reinhart Ahlrichs
                 Chem. Phys. Lett. 384:103 (2004)
 
       Efficiency, technical details:
         Peter Deglmann, Filipp Furche, Reinhart Ahlrichs
                 Chem. Phys. Lett. 362:511 (2002)
 
       Search of lowest eigenvalues by iterative diagonalization:
         Peter Deglmann, Filipp Furche
                 J. Chem. Phys. 117:9535 (2002)
 
       Vibrational circular dichroism implementation:
        Kevin Reiter, Michael Kuehn, Florian Weigend
                 J. Chem. Phys. 146:054102 (2017)  
 
 


              +--------------------------------------------------+
              | Atomic coordinate, charge and isotop information |
              +--------------------------------------------------+

                    atomic coordinates            atom    charge  isotop
          0.44368542   -0.18384741    3.59985980    cl    17.000     0
          2.76277809    1.67181808   -1.62176263    o      8.000     0
         -0.20986810   -3.05125818   -1.63359891    o      8.000     0
         -2.78809682    1.86521760   -1.02595520    o      8.000     0
          2.30456368   -0.00280119   -2.20296561    h      1.000     0
         -1.16544999    2.41861820   -1.66824371    h      1.000     0
          0.15886747   -2.72708705    0.14976359    h      1.000     0
         -2.31193156    1.36184583    0.68904854    h      1.000     0
         -1.53912233   -1.82582629   -1.92194271    h      1.000     0
          2.47341188    1.48328776    0.19522448    h      1.000     0
 
       center of nuclear mass  :    0.13281526    0.02198780    0.60704893
       center of nuclear charge:    0.11875525    0.03125215    0.47208441

              +--------------------------------------------------+
              |               basis set information              |
              +--------------------------------------------------+

              we will work with the 1s 3p 5d 7f 9g ... basis set
              ...i.e. with spherical basis functions...

   type   atoms  prim   cont   basis
   ---------------------------------------------------------------------------
    cl       1     63     37   def2-TZVP   [5s5p2d1f|14s9p3d1f]
    o        3     46     31   def2-TZVP   [5s3p2d1f|11s6p2d1f]
    h        6      8      6   def2-TZVP   [3s1p|5s1p]
   ---------------------------------------------------------------------------
   total:   10    249    166
   ---------------------------------------------------------------------------

   total number of primitive shells          :   53
   total number of contracted shells         :   70
   total number of cartesian basis functions :  186
   total number of SCF-basis functions       :  166

 
             FOUND RI-J FLAG !
 

 NOTE: THIS IS A PRELIMINARY IMPLEMENTATION. THE RI APPROXIMATION IS
       PRESENTLY USED FOR CPKS CONTRIBUTIONS TO THE HESSIAN ONLY! SEE
       MANUAL FOR FURTHER DETAILS.

  
 AUXILIARY BASIS SET information:

              we will work with the 1s 3p 5d 7f 9g ... basis set
              ...i.e. with spherical basis functions...

   type   atoms  prim   cont   basis
   ---------------------------------------------------------------------------
    cl       1     77     51   def2-TZVP   [8s4p3d1f1g|14s5p5d2f1g]
    o        3     70     49   def2-TZVP   [6s4p3d1f1g|12s5p4d2f1g]
    h        6     16     11   def2-TZVP   [3s1p1d|5s2p1d]
   ---------------------------------------------------------------------------
   total:   10    383    264
   ---------------------------------------------------------------------------

   total number of primitive shells          :   59
   total number of contracted shells         :   92
   total number of cartesian basis functions :  318
   total number of SCF-basis functions       :  264


 symmetry group of the molecule :   c1 

 the group has the following generators :
   c1(z)

    1 symmetry operations found

 there are 1 real representations :   a   

 maximum number of shells which are related by symmetry :  1


 determining totally symmetric integral contributions 
    - equivalent to irreducible tensor elements - 
 which can be formed within each triple of representations :

             representation triple      contributions

              a     a     a               1

    mo occupation :
   irrep   mo's   occupied
    a      166       24
 
 number of basis functions   :                    166
 number of occupied orbitals :                     24
 
  MOs are in ASCII format !


 reading orbital data $scfmo  from file mos
 orbital characterization : scfconv=7
 time elapsed for calculating density matrices :   0.002 sec

 number of non-frozen orbitals          :   166
 number of non-frozen occupied orbitals :    24
 Blocking parameters 
 shells:
    index      start shell   last shell  start bf    last bf    #bf 
       1             1          70             1        186    186
  
           ----------------------
               RI - INFORMATION
           ----------------------

 biggest AO integral is expected to be    10.437462037

 Threshold for integral neglect (rithr2):   0.13E-10
 Threshold for integral neglect (rithr1):   0.13E-10

 Contributions to RI integral batches: 
  neglected integral batches:                   201
  direct contribution:                            0
  memory contribution:                  2284
 Core memory available (ricore):              3000 MiB
 Core memory needed for (P|Q) and Cholesky:      1 MiB
 Core memory used for integrals:                40 MiB
 
 ****************************************
 Memory allocated for RIDFT: 41 MiB
 ****************************************
 
  
           ------------------
           density functional
           ------------------
 PBE0 hybrid functional
 exchange:    3/4 (LDA+PBE) + 1/4 HF
 correlation: LDA (PW) + PBE

 iterations will be done with small grid
  
 spherical integration : Lebedev's spherical grid
 spherical gridsize    :                     3
    i.e. gridpoints    :                   302
 value for diffuse not defined
 radial integration    : Chebyshev 2nd kind (scaling 3)
 radial gridsize       :                     3
 integration cells     :                    10
 partition function    : becke
 partition sharpness   :                     3
  
 
 Derivatives of quadrature weights will be included
 
          Overall gridpoints after grid construction =         47388
 Ordering of quadrature gridpoints disabled.
 
 
 
 
 OCCUPIED-OCCUPIED TENSOR SPACES :

          IRREP   tensor space dimension   number of roots

           a               576                  24
 
 OCCUPIED-VIRTUAL TENSOR SPACES :

          IRREP   tensor space dimension   number of roots

           a              3408                  24
 
 
 
 
 CONSTRUCTING integral bounds

 setting up bound for integral derivative estimation

 increment for numerical differentiation : 0.00050000
 
 machine precision:   2.220446049250313E-016

 integral neglect threshold       :  0.10E-09
 integral storage threshold THIZE :  0.10E-04
 integral storage threshold THIME :         5

 
 
 
 PREPARING NUMERICAL INTEGRATION
 
 Remaining core memory for DFT =                  4976 MB
 
 Memory needed per atom    =                   407 KiB
 
     i. e.                    10 atoms per loop

 Calculating ground state density on molecular grid

 Integral of ground state density: N =   48.00002549340109    


 
 
 CONSTRUCTING first deriv. of <mu|x,y,z|nu> -> Dip. deriv.
  dipole integral derivatives will be neglected if
  expon. factor <0.268817E-11
      ...terminated. cpu:       0.01       wall:       0.01
 
 
 
 
 CONSTRUCTING first deriv. of  <mu|nu>
                               <mu|h|nu>    -> RHS
              second deriv. of <mu|nu>      -> Hessian
                               <mu|h|nu>    -> Hessian
                               nucl. rep.   -> Hessian
     integrals are neglected if expon. factor <  2.688172043010752E-013
  _________________________________
 |                                 |
 |         DFTD3 V3.1 Rev 0        |
 | S.Grimme, University Bonn       |
 |         June 2014               |
 |   see standalone version        |
 |       dftd3 -h for options      |
 |_________________________________|
 
 Please cite DFT-D3 work done with this code as:
 S. Grimme, J. Antony, S. Ehrlich and H. Krieg,
 J. Chem. Phys, 132 (2010), 154104.
 If used with BJ-damping cite also
 S. Grimme, S. Ehrlich and L. Goerigk,
 J. Comput. Chem. 32 (2011), 1456-1465
 For DFT-D2 the reference is
 S. Grimme, J. Comput. Chem., 27 (2006), 1787-1799
 
      ...terminated. cpu:       0.38       wall:       0.40
 
 
 
 
 CONSTRUCTING second deriv. of 2e energy    -> Hessian
   treating Coulomb (and exchange) contribution
     integrals will be neglected if total contribution <  2.688172043010752E-009
      ...terminated. cpu:      24.50       wall:      24.51
   treating exchange-correlation contribution
      ...terminated. cpu:      32.76       wall:      32.77
 
 
 
 
 CONSTRUCTING S(i,j)xi
      ...terminated. cpu:       0.00       wall:       0.02
 
 
 
 
 CONSTRUCTING <i|x,y,z|j>*S(i,j)xi          -> Dip. deriv.
      ...terminated. cpu:       0.01       wall:       0.01
 
 
 
 
 CONSTRUCTING epsilon(i)*S(i,j)xi*S(i,j)chi -> Hessian
      ...terminated. cpu:       0.00       wall:       0.00
 
 
 
 
 CONSTRUCTING G(a,i)[S(k,l)xi]              -> RHS
              G(i,j)[S(k,l)xi]*S(i,j)chi    -> Hessian
 
         Maximum core memory set to                   5000 MB
         This corresponds to                 18459 vectors in CAO basis
      ...terminated. cpu:      34.06       wall:      34.11
 
 
 
 
 CONSTRUCTING G(mu,nu)[D(kap,lam)]xi
 
          Maximum core memory set to                   5000 MB
          Atoms treated simultaneously :                    10
      ...terminated. cpu:      37.33       wall:      37.62
 
 
 
 
 CONSTRUCTING F(a,i)xi                      -> RHS
              F(i,j)xi*S(i,j)chi            -> Hessian
 
        Maximum core memory set to                  5000 MB
        This corresponds to                 31509 vectors in CAO basis
      ...terminated. cpu:       0.04       wall:       0.11
 
 
 
 
 CONSTRUCTING epsilon(i)*S(a,i)xi           -> RHS
      ...terminated. cpu:       0.02       wall:       0.02
 
 
 
 
 SOLVING CPHF equations
 
 Residuum convergence criterium   :  1.000000000000000E-005
 
 Maximum number of Davidson iterations set to                    25
  Switching to small grid
        preparing numerical integration ....
          Overall gridpoints after grid construction =         12565

 Calculating ground state density on molecular grid

 Integral of ground state density: N =   47.99682592122173    




                       Nonorthonormal Krylov Space Iteration


 total number of roots to be determined:  24


 maximum core memory set to  5000 MB,
 corresponding to    18295 vectors in CAO basis


 maximum number of simultaneously treated vectors (including degeneracy):       24


 Iteration IRREP Converged      Max. Euclidean
                 roots          residual norm

    1       a        0        1.060898909245061D-01
 
    2       a        0        1.071036399570478D-02
 
    3       a        0        8.731392706206949D-04
 
    4       a        0        6.382384227410940D-05
 
    5       a       24        4.511760154202139D-06
 

 converged!

  Switching to fine grid
        preparing numerical integration ....
          Overall gridpoints after grid construction =         47388

 Calculating ground state density on molecular grid

 Integral of ground state density: N =   48.00002549340130    



 Iteration IRREP Converged      Max. Euclidean
                 roots          residual norm

    6       a        0        1.433171943327709D-04
 

 NOTE: Residual norms are larger than 1.00D-05 due to mgrid option!

      ...terminated. cpu:     105.23       wall:     107.43
 
 
 
 
 CONSTRUCTING <a|x,y,z|i>*U(a,i)xi          -> Dip. deriv.
      ...terminated. cpu:       0.02       wall:       0.02
 
 
 
 
 CONSTRUCTING RHS(a,i)xi*U(a,i)chi          -> Hessian
      ...terminated. cpu:       0.00       wall:       0.04
 
 
 
 

            -----------------------
            permanent dipole moment
            -----------------------

                                   x                y                z
    electronic part       :   -5.7710945530    -1.4553978829   -23.3273977453
     nuclear   part       :    5.5814966881     1.4688512006    22.1879671911
     total                :   -0.1895978650     0.0134533176    -1.1394305542

 with reference to the point :   0.0000000        0.0000000        0.0000000
 (given in atomic units)
    | dipole |       :    2.9361853240  debye

   ***  dipole moment & cartesian dipole gradients written onto
        $dipole, $dipgrad,  file=<dipgrad>  ***

             -----------------------------------
             rotational and vibrational analysis
             -----------------------------------


            ==============================================================
            ATOMIC WEIGHTS (average over the natural occurance of isotops)
            ==============================================================
            ('*' denotes special isotop !)
              1     cl               35.45300
              2     o                15.99940
              3     o                15.99940
              4     o                15.99940
              5     h                 1.00797
              6     h                 1.00797
              7     h                 1.00797
              8     h                 1.00797
              9     h                 1.00797
             10     h                 1.00797

          -------------------------------------------------
          CARTESIAN FORCE CONSTANT MATRIX (hartree/bohr**2)
         (translational & rotational space projected out)
          -------------------------------------------------

   ATOM              1 cl                          2 o 
                  dx        dy        dz        dx        dy        dz
   1 cl    dx  0.0077548
           dy -0.0004341 0.0076673
           dz  0.0023446-0.0014547 0.0296293
   2 o     dx  0.0021505-0.0024879 0.0066444 0.0752920
           dy -0.0027487 0.0026654 0.0049579 0.1350526 0.4707847
           dz  0.0101672 0.0074812-0.0127092-0.0405415 0.0826703 0.5308453
   3 o     dx  0.0046735-0.0017304-0.0028403-0.0012046-0.0092015-0.0007421
           dy -0.0008397 0.0003092-0.0081258-0.0080576-0.0077375-0.0008650
           dz -0.0021107-0.0124718-0.0127977 0.0007049 0.0014694 0.0058702
   4 o     dx -0.0016994 0.0039063-0.0081006-0.0132853 0.0022200 0.0006832
           dy  0.0042191 0.0024750 0.0058997 0.0004921 0.0047399-0.0004519
           dz -0.0120884 0.0077330-0.0086412 0.0030795-0.0006674 0.0055154
   5 h     dx -0.0016955-0.0010441-0.0006267-0.0425017-0.1129947-0.0391975
           dy -0.0008822-0.0023305 0.0006300-0.1070961-0.4132784-0.1513508
           dz -0.0007771 0.0006635 0.0015656-0.0239516-0.1026740-0.0887047
   6 h     dx -0.0030747-0.0000127 0.0002297 0.0068370-0.0041064 0.0021230
           dy  0.0001757-0.0004865-0.0013162-0.0041756-0.0040668-0.0008437
           dz  0.0002252-0.0014506 0.0010682 0.0010463-0.0005138-0.0057704
   7 h     dx -0.0051788 0.0010771 0.0006426-0.0009743 0.0011358-0.0011387
           dy  0.0002572-0.0006173 0.0041330 0.0010883 0.0005922-0.0020718
           dz  0.0000514 0.0077578 0.0011592-0.0010691-0.0029987-0.0032242
   8 h     dx  0.0000449-0.0024055 0.0034410 0.0003981 0.0006471-0.0026157
           dy -0.0030125-0.0037578-0.0020750 0.0008715-0.0015234 0.0008842
           dz  0.0068392-0.0034412-0.0011700-0.0035079 0.0009525-0.0024779
   9 h     dx -0.0007843 0.0007968 0.0014491 0.0016198 0.0020644 0.0009713
           dy  0.0009460-0.0028215-0.0000400 0.0026172-0.0019595 0.0003634
           dz  0.0015395 0.0001328 0.0010167 0.0003100 0.0002778-0.0014014
  10 h     dx -0.0021909 0.0023347-0.0031838-0.0283315-0.0120686 0.0702908
           dy  0.0023192-0.0031032-0.0026088-0.0183045-0.0502166 0.0641841
           dz -0.0061910-0.0049499 0.0008791 0.0572849 0.0165260-0.4279432

   ATOM              3 o                           4 o 
                  dx        dy        dz        dx        dy        dz
   3 o     dx  0.3109141
           dy -0.2363750 0.2850806
           dz  0.1377461 0.0439317 0.4804413
   4 o     dx  0.0015907 0.0060920 0.0006295 0.4822571
           dy  0.0078068-0.0101059-0.0008007 0.0979147 0.1053460
           dz  0.0018893-0.0028004 0.0054506-0.0291700-0.1710000 0.4893988
   5 h     dx  0.0013772 0.0067674-0.0033017 0.0007368-0.0027849-0.0015783
           dy  0.0062427 0.0006949-0.0027522-0.0021997-0.0014259 0.0008837
           dz -0.0025235-0.0020645-0.0048495-0.0010358 0.0004029-0.0010071
   6 h     dx -0.0029940-0.0000114 0.0001625-0.3922271-0.1332530 0.1570614
           dy  0.0002484 0.0027301-0.0010543-0.1167558-0.0570046 0.0604901
           dz  0.0004909-0.0003551-0.0014928 0.1094069 0.0506319-0.0956913
   7 h     dx -0.0487286 0.0081372-0.0620646-0.0003020-0.0016750 0.0000040
           dy -0.0045698-0.0447324-0.0892262-0.0015428 0.0002117-0.0021467
           dz -0.0972494-0.0568103-0.4124846 0.0003951-0.0028344-0.0037014
   8 h     dx -0.0017225-0.0005268-0.0016864-0.0735985 0.0295954-0.1203945
           dy -0.0005585 0.0001557 0.0023567 0.0130642-0.0491865 0.1020981
           dz -0.0023553 0.0025725-0.0023452-0.0749128 0.1135081-0.3833084
   9 h     dx -0.2630278 0.2239363-0.0717234-0.0051137-0.0021154-0.0007633
           dy  0.2371755-0.2269570 0.0569260-0.0022445 0.0066607 0.0050012
           dz -0.0366524 0.0219899-0.0543998-0.0005225 0.0037514-0.0044716
  10 h     dx -0.0008780 0.0008776 0.0016438 0.0016416-0.0001997 0.0019602
           dy  0.0009620 0.0005624 0.0016214-0.0004543-0.0017104 0.0004082
           dz  0.0022367 0.0025271-0.0033925 0.0026271 0.0008930-0.0035438

   ATOM              5 h                           6 h 
                  dx        dy        dz        dx        dy        dz
   5 h     dx  0.0421332
           dy  0.1039805 0.4161258
           dz  0.0352679 0.1488468 0.1132246
   6 h     dx -0.0004038 0.0039487 0.0007365 0.3850717
           dy  0.0046247-0.0016449-0.0001981 0.1321676 0.0666371
           dz  0.0012945-0.0011187 0.0013664-0.1500172-0.0672086 0.1201313
   7 h     dx  0.0006352-0.0012928 0.0033015 0.0007111 0.0001409-0.0000109
           dy -0.0010752 0.0001127 0.0033248 0.0004255-0.0005705 0.0007067
           dz  0.0033100 0.0044958-0.0012126-0.0001868 0.0012206 0.0005666
   8 h     dx -0.0000867 0.0001437 0.0008051 0.0053284-0.0148136 0.0427342
           dy  0.0004276 0.0006725-0.0004388 0.0014267-0.0021238 0.0181860
           dz  0.0012903-0.0004744 0.0001294-0.0046614 0.0071802-0.0220461
   9 h     dx -0.0052047-0.0014732-0.0002119 0.0023159-0.0026707-0.0008487
           dy -0.0021046 0.0028466-0.0001127-0.0022656-0.0045604-0.0003412
           dz  0.0009723-0.0002293 0.0015114-0.0002047 0.0007815 0.0016828
  10 h     dx  0.0050101-0.0013717-0.0116110-0.0015645 0.0010585-0.0043213
           dy  0.0042033-0.0017728-0.0477498 0.0016807 0.0010903 0.0014632
           dz  0.0025692 0.0010691-0.0220235-0.0052429 0.0009484 0.0001852

   ATOM              7 h                           8 h 
                  dx        dy        dz        dx        dy        dz
   7 h     dx  0.0634043
           dy -0.0065258 0.0446630
           dz  0.0969609 0.0522642 0.4234995
   8 h     dx  0.0003969 0.0018720 0.0015157 0.0703612
           dy  0.0017528-0.0018819-0.0005010-0.0136995 0.0565820
           dz  0.0011802 0.0005674 0.0040513 0.0743213-0.1146238 0.4051864
   9 h     dx -0.0100044 0.0118085-0.0027521 0.0019000-0.0001349 0.0014784
           dy -0.0008914 0.0044734-0.0023593-0.0006078-0.0003408-0.0051224
           dz -0.0386224 0.0318409-0.0130879 0.0004983-0.0046003-0.0019835
  10 h     dx  0.0000406-0.0017378-0.0009757-0.0030218-0.0001375 0.0003280
           dy -0.0018588-0.0022510-0.0002348-0.0002048 0.0014040-0.0011188
           dz -0.0002527 0.0006075 0.0044340 0.0013811-0.0012861 0.0039640

   ATOM              9 h                          10 h 
                  dx        dy        dz        dx        dy        dz
   9 h     dx  0.2784472
           dy -0.2318342 0.2222830
           dz  0.0734016-0.0535667 0.0706383
  10 h     dx -0.0001480-0.0007904-0.0007198 0.0294424
           dy -0.0003776 0.0003757-0.0003780 0.0120349 0.0556215
           dz -0.0010010-0.0007484 0.0004950-0.0534113-0.0155868 0.4469456
 

   *** projected hessian written onto $hessian (projected), file=<hessian> ***

 dipole moment in principle axis system (a.u.) :
    -0.0384327379    -0.0894846814    -1.1510628769
 norm :   1.15517545424250     

 rotational constants b for rotations around axis of inertia
 and optical intensities for (1 <-- 0) transition

   b   :     0.0739455905     0.0738911179     0.1113799724   (cm**(-1))
   b   :        2216.8330        2215.2000        3339.0876     (MHz)
  int. :     0.0014770753     0.0080075082     1.3249457465     (a.u.)

   x   :     0.9023991698     0.4186450522     0.1020394954
   y   :    -0.4134730289     0.9079385557    -0.0684662941
   z   :    -0.1213086673     0.0195933477     0.9924214367

   ***  normal modes written onto $vibrational normal modes, file=<vib_normal_modes>  ***

 keyword $vibrational reduced masses missing in file <control>


   ***  vibrational spectroscopic data written onto$vibrational spectrum   
        file=<vibspectrum>  ***

          ---------------------------------------------------
          NORMAL MODES and VIBRATIONAL FREQUENCIES (cm**(-1))
          ---------------------------------------------------

 imaginary wave numbers indicate a negative curvature of the energy surface.
 zero frequency modes have no physical meaning except being generators of
 translations and rotations. each vibrational normal mode - given in terms of
 cartesian displacement vectors of all atoms - has been normalized to unity.
 to obtain mass-weigthed normal coordinates in a.u. divide the tabulated
 modes by sqrt(reduced mass * 1822.88853).
 band intensities or cross sections refer to independent non-degenerate normal
 modes, that is, the intensities of degenerate modes have yet to be added.
 dDIP/dQ is the normal mode derivative of the dipole moment.


       mode               1        2        3        4        5        6

     frequency           0.00     0.00     0.00     0.00     0.00     0.00

     symmetry                                                             

        IR                -        -        -        -        -        - 
|dDIP/dQ|   (a.u.)     0.0000   0.0000   0.0000   0.0000   0.0000   0.0000
intensity (km/mol)       0.00     0.00     0.00     0.00     0.00     0.00
intensity (  %   )       0.00     0.00     0.00     0.00     0.00     0.00
 
       RAMAN              -        -        -        -        -        - 
 
  1   cl          x  -0.01496 -0.25566  0.00287 -0.00578  0.39482 -0.15402
                  y  -0.15511 -0.27510  0.05138  0.07865 -0.04010  0.36433
                  z  -0.18658  0.18390  0.10385 -0.10014  0.09361  0.07211
  2   o           x   0.03635  0.20225 -0.20524  0.15413  0.26539  0.18152
                  y  -0.33817 -0.13877 -0.01601  0.20130 -0.17740 -0.27379
                  z  -0.22885  0.43573 -0.01253  0.01447 -0.01267 -0.00564
  3   o           x  -0.10966  0.11321  0.15073  0.44563  0.13160 -0.11335
                  y  -0.24654 -0.08172 -0.24070  0.01818 -0.09362 -0.08901
                  z  -0.12466  0.03188  0.24542 -0.12338  0.15581  0.31541
  4   o           x   0.04302  0.15772 -0.21205  0.11093  0.29160  0.16857
                  y  -0.15389 -0.05360 -0.40692 -0.13825 -0.01245  0.12960
                  z  -0.22654 -0.00679  0.05099 -0.27777  0.17797 -0.25724
  5   h           x  -0.01609  0.21737 -0.08656  0.28778  0.19786  0.10122
                  y  -0.33641 -0.10995 -0.07752  0.17084 -0.17245 -0.30002
                  z  -0.19259  0.34075  0.07115 -0.00312  0.02632  0.13324
  6   h           x   0.05938  0.22024 -0.26216  0.11058  0.28486  0.23017
                  y  -0.21774 -0.06231 -0.31436 -0.04080 -0.06711 -0.03252
                  z  -0.24023  0.14366  0.00413 -0.19470  0.11385 -0.24129
  7   h           x  -0.09757 -0.02493  0.14958  0.33202  0.20285 -0.16804
                  y  -0.21990 -0.15040 -0.13016  0.04778 -0.07950  0.05634
                  z  -0.13200  0.07293  0.22556 -0.10527  0.13851  0.30030
  8   h           x   0.02944  0.00934 -0.15169  0.05188  0.33710  0.06500
                  y  -0.13202 -0.12196 -0.29145 -0.10230 -0.00231  0.26178
                  z  -0.21636  0.01434  0.06813 -0.25082  0.16831 -0.18969
  9   h           x  -0.07211  0.15989  0.05457  0.38530  0.15616 -0.02459
                  y  -0.21160 -0.04642 -0.35431 -0.06480 -0.06005 -0.03311
                  z  -0.14926 -0.03332  0.20593 -0.19792  0.18524  0.14382
 10   h           x   0.03263  0.05162 -0.16730  0.07033  0.32334  0.09335
                  y  -0.29047 -0.19607  0.04647  0.19050 -0.14424 -0.08411
                  z  -0.22449  0.40579  0.00000  0.00000  0.00000  0.00000

reduced mass(g/mol)     8.039   11.504    7.416    7.372   10.771   11.667


       mode               7        8        9       10       11       12

     frequency         103.26   106.95   139.54   173.40   176.66   219.36

     symmetry            a        a        a        a        a        a   

        IR               YES      YES      YES      YES      YES      YES
|dDIP/dQ|   (a.u.)     0.0006   0.0008   0.0008   0.0033   0.0032   0.0036
intensity (km/mol)       0.73     1.13     1.20    19.09    18.44    22.83
intensity (  %   )       0.08     0.13     0.14     2.22     2.14     2.65
 
       RAMAN             YES      YES      YES      YES      YES      YES
 
  1   cl          x   0.15276  0.06426  0.02251  0.06165  0.11777  0.02777
                  y   0.07211 -0.15091 -0.02192  0.11367 -0.06785 -0.01663
                  z  -0.00709 -0.02209  0.27217  0.00101 -0.01006  0.26170
  2   o           x  -0.04568 -0.32541 -0.30547 -0.20647  0.12688  0.20835
                  y   0.19204  0.15319 -0.11920 -0.27881 -0.15336  0.12626
                  z   0.36932  0.01565 -0.18347  0.22180  0.12633 -0.17964
  3   o           x  -0.37168  0.08800  0.01248  0.20018  0.01250 -0.03568
                  y  -0.13962 -0.18518  0.31591 -0.11000  0.29066 -0.24806
                  z  -0.13175  0.29873 -0.16551 -0.27081  0.13960 -0.18516
  4   o           x   0.09534  0.10125  0.24496 -0.10903 -0.34569 -0.22617
                  y  -0.20235  0.35031 -0.15059  0.19171 -0.00830  0.15352
                  z  -0.22300 -0.26716 -0.22338  0.04791 -0.24999 -0.13398
  5   h           x   0.21913 -0.06441 -0.36572 -0.09676 -0.03478  0.24814
                  y   0.21988  0.07096 -0.16955 -0.27241 -0.14159  0.14925
                  z   0.11374  0.04788 -0.02739  0.12472  0.20567 -0.25252
  6   h           x   0.15004  0.26798  0.33135 -0.01358 -0.31936 -0.27193
                  y  -0.12282  0.02416 -0.20185  0.00287 -0.02939  0.18416
                  z  -0.03351 -0.15323 -0.08201  0.11167 -0.20266 -0.20088
  7   h           x  -0.23550  0.01004 -0.02354  0.10936 -0.07197 -0.02630
                  y  -0.22064  0.06985  0.03626 -0.17718  0.36404 -0.16167
                  z  -0.16040  0.28190 -0.11189 -0.24454  0.15575 -0.20677
  8   h           x  -0.07027 -0.12858  0.03798 -0.20320 -0.40433 -0.15983
                  y  -0.11538  0.28068  0.01147  0.10561  0.05773  0.10374
                  z  -0.15643 -0.24331 -0.12285  0.04046 -0.22486 -0.17096
  9   h           x  -0.13043  0.05124  0.02893  0.14174 -0.10400 -0.04760
                  y   0.14222 -0.29524  0.38827 -0.17581  0.13382 -0.28970
                  z  -0.08448  0.06298 -0.00784 -0.26584  0.04118 -0.25749
 10   h           x  -0.19465 -0.23522 -0.03822 -0.27529  0.06698  0.12996
                  y  -0.05953  0.10500 -0.02566 -0.35258 -0.04592  0.09576
                  z   0.33893  0.03108 -0.13599  0.21558  0.12577 -0.19896

reduced mass(g/mol)     8.741    8.926    9.607    6.771    6.771    7.621


       mode              13       14       15       16       17       18

     frequency         407.78   410.10   458.53   482.88   491.53   704.64

     symmetry            a        a        a        a        a        a   

        IR               YES      YES      YES      YES      YES      YES
|dDIP/dQ|   (a.u.)     0.0027   0.0031   0.0066   0.0058   0.0061   0.0024
intensity (km/mol)      12.93    17.31    78.52    59.00    65.96    10.15
intensity (  %   )       1.50     2.01     9.12     6.85     7.66     1.18
 
       RAMAN             YES      YES      YES      YES      YES      YES
 
  1   cl          x  -0.00168  0.00500 -0.00052 -0.00068  0.00424 -0.00026
                  y   0.00434  0.00250  0.00067  0.00461  0.00036  0.00048
                  z   0.00047 -0.00030 -0.00767  0.00101  0.00013 -0.00413
  2   o           x   0.00782  0.00159  0.01418  0.01589 -0.01278 -0.00613
                  y   0.00990 -0.00027  0.00309  0.00018 -0.01052  0.01993
                  z  -0.01665 -0.00452 -0.01799  0.02238 -0.00953  0.00749
  3   o           x   0.00078  0.00320 -0.00650  0.00708 -0.00013  0.02100
                  y   0.00704 -0.01002 -0.01697 -0.00389 -0.01995 -0.00253
                  z   0.01338 -0.01206 -0.01648  0.00067  0.02487  0.00390
  4   o           x   0.00448  0.01483 -0.01080  0.01553 -0.00092 -0.01412
                  y   0.00191 -0.00472  0.01240 -0.00937 -0.00985 -0.01133
                  z   0.00053  0.01224 -0.02022 -0.02162 -0.01099  0.00623
  5   h           x   0.23335 -0.24508 -0.24986 -0.62916 -0.05403 -0.20797
                  y   0.03678 -0.09349 -0.05519  0.27669 -0.00119  0.11599
                  z  -0.25719  0.42958  0.32988 -0.27324 -0.00121 -0.12117
  6   h           x   0.29554  0.03997  0.16544 -0.01951 -0.11168  0.00295
                  y  -0.28634 -0.07504 -0.06632  0.29107  0.61123 -0.25366
                  z   0.45708  0.01549  0.33520  0.15592  0.25704 -0.17068
  7   h           x  -0.11644 -0.31803  0.17859  0.17334 -0.23497 -0.44136
                  y   0.23809  0.31903 -0.38797  0.12115 -0.01986 -0.25544
                  z   0.00212  0.00973  0.00375 -0.05322  0.07278  0.14489
  8   h           x  -0.53068  0.00957 -0.39383 -0.02308 -0.00323  0.03753
                  y  -0.11791 -0.09103  0.00991 -0.08197 -0.27386  0.43995
                  z   0.09674 -0.01363  0.07784 -0.03197 -0.08324  0.12478
  9   h           x  -0.01204 -0.18156  0.09524 -0.27741  0.41301  0.16522
                  y  -0.07276 -0.32005  0.19249 -0.28762  0.35259  0.12020
                  z  -0.23301 -0.41963  0.34547  0.12370 -0.31634 -0.15966
 10   h           x  -0.01839  0.20808  0.27245  0.18890  0.06138  0.44068
                  y  -0.24974  0.41085  0.30693 -0.27383 -0.04169 -0.28027
                  z  -0.03879  0.05763  0.04589  0.02053 -0.00243  0.04726

reduced mass(g/mol)     1.019    1.019    1.037    1.033    1.033    1.028


       mode              19       20       21       22       23       24

     frequency         758.02   763.82   877.02  1694.31  1696.27  1721.82

     symmetry            a        a        a        a        a        a   

        IR               YES      YES      YES      YES      YES      YES
|dDIP/dQ|   (a.u.)     0.0128   0.0129   0.0017   0.0089   0.0089   0.0103
intensity (km/mol)     292.49   293.51     4.97   140.93   141.38   188.48
intensity (  %   )      33.96    34.08     0.58    16.36    16.41    21.88
 
       RAMAN             YES      YES      YES      YES      YES      YES
 
  1   cl          x   0.00664 -0.00088  0.00040  0.00065 -0.00106 -0.00021
                  y   0.00070  0.00689 -0.00009 -0.00102 -0.00061  0.00014
                  z  -0.00065  0.00077  0.00352 -0.00015  0.00007 -0.00177
  2   o           x   0.04099 -0.02151  0.03116 -0.01529  0.00156 -0.01506
                  y  -0.00009  0.01053 -0.00331 -0.04512 -0.00014 -0.03167
                  z  -0.00533  0.00237  0.00717  0.02877 -0.00205  0.02162
  3   o           x   0.02804  0.00612 -0.01581  0.01372 -0.02076 -0.01517
                  y   0.02881  0.02467 -0.02536 -0.01643  0.03069  0.02845
                  z  -0.00009  0.00058  0.01044 -0.01619  0.03129  0.02589
  4   o           x   0.00972 -0.01626 -0.01196 -0.02524 -0.04240  0.03680
                  y   0.00326  0.04299  0.02766 -0.00035 -0.00414 -0.00126
                  z  -0.00063  0.00398  0.01373 -0.01414 -0.02119  0.01832
  5   h           x  -0.20583  0.15071 -0.47420  0.09874  0.00354  0.08745
                  y   0.08119 -0.02657  0.16792  0.16927 -0.00332  0.12206
                  z  -0.05970 -0.02207 -0.09232 -0.52500  0.00510 -0.37056
  6   h           x   0.02988  0.04588  0.07675  0.12341  0.21278 -0.18378
                  y   0.01097 -0.21558 -0.46779 -0.04809 -0.09222  0.08661
                  z   0.06048 -0.07393 -0.19354  0.25107  0.42647 -0.34445
  7   h           x  -0.46542 -0.11983  0.18409 -0.24208  0.36448  0.25959
                  y  -0.47053 -0.28248  0.17583  0.17706 -0.35053 -0.32495
                  z   0.18378  0.07493 -0.06231  0.03042 -0.03642 -0.01163
  8   h           x  -0.07011  0.19485  0.05123  0.28053  0.48021 -0.39937
                  y  -0.09129 -0.71556 -0.26618  0.06356  0.17631 -0.06466
                  z  -0.00824 -0.26577 -0.08437 -0.04359 -0.05748  0.07463
  9   h           x  -0.15071 -0.11252  0.34512  0.01125 -0.01334 -0.01804
                  y  -0.16251 -0.08411  0.32749  0.08341 -0.14056 -0.13257
                  z   0.03195  0.10588 -0.16485  0.26385 -0.46527 -0.37885
 10   h           x  -0.62135  0.37433 -0.25097  0.13090 -0.03261  0.15739
                  y   0.10001 -0.15892  0.08206  0.57318  0.01249  0.37980
                  z  -0.08949  0.04384 -0.02371  0.05330 -0.00239  0.04806

reduced mass(g/mol)     1.061    1.060    1.055    1.078    1.077    1.085


       mode              25       26       27       28       29       30

     frequency        3535.82  3537.17  3582.01  3722.52  3750.95  3751.68

     symmetry            a        a        a        a        a        a   

        IR               YES      YES      YES      YES      YES      YES
|dDIP/dQ|   (a.u.)     0.0079   0.0079   0.0220   0.0084   0.0105   0.0105
intensity (km/mol)     111.13   109.97   861.37   125.13   196.23   197.32
intensity (  %   )      12.90    12.77   100.00    14.53    22.78    22.91
 
       RAMAN             YES      YES      YES      YES      YES      YES
 
  1   cl          x  -0.00017 -0.00059 -0.00001  0.00001 -0.00006  0.00017
                  y   0.00060 -0.00018  0.00002 -0.00000  0.00018  0.00006
                  z   0.00006  0.00005 -0.00016  0.00013  0.00002 -0.00002
  2   o           x  -0.00160  0.00732 -0.00633 -0.00771  0.00417  0.01056
                  y   0.00183  0.00385 -0.00811 -0.03019  0.01651  0.04174
                  z   0.01850 -0.04502  0.03201 -0.01964  0.01029  0.01639
  3   o           x  -0.01183 -0.00050  0.00264 -0.02687 -0.03607 -0.00476
                  y  -0.00715  0.00363  0.00892  0.02230  0.03133  0.00477
                  z  -0.04791  0.00679  0.03072 -0.01427 -0.01116  0.00170
  4   o           x   0.00899  0.00668  0.01312  0.02823 -0.02722  0.03289
                  y  -0.00823 -0.01179 -0.00736  0.01226 -0.00976  0.01302
                  z   0.02743  0.03739  0.02943 -0.02046  0.01024 -0.01781
  5   h           x  -0.00939 -0.00701  0.02002  0.12993 -0.07314 -0.17619
                  y  -0.04355 -0.02603  0.10163  0.50488 -0.27576 -0.68420
                  z  -0.00960 -0.04077  0.06427  0.20259 -0.10761 -0.27268
  6   h           x  -0.03837  0.02350 -0.09310 -0.48418  0.44061 -0.54985
                  y  -0.02002  0.00503 -0.04649 -0.17975  0.16478 -0.20145
                  z   0.03985  0.01256  0.06601  0.21952 -0.19957  0.24555
  7   h           x   0.19270 -0.03406 -0.13084  0.00915 -0.01466 -0.01508
                  y   0.09740 -0.01477 -0.06532  0.02906  0.02032 -0.00437
                  z   0.78226 -0.12443 -0.52954  0.10947  0.01722 -0.05144
  8   h           x  -0.09438 -0.12414 -0.10803  0.04362 -0.00817  0.02824
                  y   0.14138  0.17638  0.15729 -0.02414 -0.01479 -0.00598
                  z  -0.47054 -0.60045 -0.53234  0.10241  0.03690  0.03522
  9   h           x  -0.00920  0.04395  0.09065  0.42128  0.58557  0.08732
                  y   0.00408 -0.03521 -0.06785 -0.37199 -0.51807 -0.07431
                  z  -0.03117  0.01940  0.04424  0.11580  0.15824  0.02510
 10   h           x   0.03519 -0.09558  0.07211 -0.01961  0.01045  0.00534
                  y   0.01503 -0.03055  0.02398 -0.02734  0.01272  0.02326
                  z  -0.28168  0.74538 -0.56970  0.10866 -0.05469  0.01430

reduced mass(g/mol)     1.064    1.064    1.057    1.070    1.064    1.064
 

         **************************************************************
         *                                                            *
         *  zero point VIBRATIONAL energy  :      0.0757856  Hartree  *
         *    SCF-energy                   :   -689.3405835           *
         *    SCF + E(vib0)                :   -689.2647979           *
         *                                                            *
         **************************************************************




 time elapsed for vibrational analysis     0.03 sec


    ------------------------------------------------------------------------
         total  cpu-time :  3 minutes and 59 seconds
         total wall-time :  4 minutes and  2 seconds
    ------------------------------------------------------------------------

   ****  force : all done  ****


    2018-03-04 02:11:56.766 

