[Molden Format]
[Title]
                                                                                
[Atoms] AU
 cl    1   17 0.44368542390360E+00 -.18384741476179E+00 0.35998597990583E+01
 o     2    8 0.27627780865405E+01 0.16718180764215E+01 -.16217626321502E+01
 o     3    8 -.20986810320654E+00 -.30512581817390E+01 -.16335989123188E+01
 o     4    8 -.27880968180015E+01 0.18652176042439E+01 -.10259552017640E+01
 h     5    1 0.23045636801251E+01 -.28011948786300E-02 -.22029656098444E+01
 h     6    1 -.11654499851258E+01 0.24186181971445E+01 -.16682437149628E+01
 h     7    1 0.15886746844395E+00 -.27270870500045E+01 0.14976358817811E+00
 h     8    1 -.23119315625114E+01 0.13618458330629E+01 0.68904854030023E+00
 h     9    1 -.15391223268158E+01 -.18258262898527E+01 -.19219427060296E+01
 h    10    1 0.24734118849359E+01 0.14832877646189E+01 0.19522447932245E+00
[GTO]
    1 0
 s    7 1.00
 0.69507990945000E+05 0.51457389646325E-03
 0.10426156880000E+05 0.39781344806745E-02
 0.23732334061000E+04 0.20456178670619E-01
 0.67156420071000E+03 0.80148102887582E-01
 0.21841999790000E+03 0.23454770317658E+00
 0.77572249714000E+02 0.44543368582255E+00
 0.28888815277000E+02 0.35466842499038E+00
 s    3 1.00
 0.12710527185000E+03 0.11293688054705E+00
 0.39339582961000E+02 0.48373514210060E+00
 0.76740679989000E+01 -.12292297389810E+01
 s    2 1.00
 0.38745627630000E+01 0.67296821635762E+00
 0.18385832573000E+01 0.34956051409054E+00
 s    1 1.00
 0.50229057542000E+00 0.10000000000000E+01
 s    1 1.00
 0.17962723420000E+00 0.10000000000000E+01
 p    5 1.00
 0.66650423284000E+03 0.33502508198275E-02
 0.15764241690000E+03 0.26763970407523E-01
 0.50262520978000E+02 0.12362682360800E+00
 0.18536078105000E+02 0.35845787918981E+00
 0.72940532777000E+01 0.61677296353714E+00
 p    1 1.00
 0.29433248995000E+01 0.10000000000000E+01
 p    1 1.00
 0.10404970818000E+01 0.10000000000000E+01
 p    1 1.00
 0.38456415080000E+00 0.10000000000000E+01
 p    1 1.00
 0.13069642732000E+00 0.10000000000000E+01
 d    2 1.00
 0.46100000000000E+01 0.18265835045336E+00
 0.10110000000000E+01 0.91329175226681E+00
 d    1 1.00
 0.33900000000000E+00 0.10000000000000E+01
 f    1 1.00
 0.70600000000000E+00 0.10000000000000E+01
 
    2 0
 s    6 1.00
 0.27032382631000E+05 0.57227335211155E-03
 0.40523871392000E+04 0.44353233492995E-02
 0.92232722710000E+03 0.23020107706038E-01
 0.26124070989000E+03 0.92822490667928E-01
 0.85354641351000E+02 0.29378500009671E+00
 0.31035035245000E+02 0.67401604501641E+00
 s    2 1.00
 0.12260860728000E+02 0.63839937025506E+00
 0.49987076005000E+01 0.39534587125718E+00
 s    1 1.00
 0.11703108158000E+01 0.10000000000000E+01
 s    1 1.00
 0.46474740994000E+00 0.10000000000000E+01
 s    1 1.00
 0.18504536357000E+00 0.10000000000000E+01
 p    4 1.00
 0.63274954801000E+02 0.12018332222616E-01
 0.14627049379000E+02 0.83005421790056E-01
 0.44501223456000E+01 0.31991743925964E+00
 0.15275799647000E+01 0.70715542916104E+00
 p    1 1.00
 0.52935117943000E+00 0.10000000000000E+01
 p    1 1.00
 0.17478421270000E+00 0.10000000000000E+01
 d    1 1.00
 0.23140000000000E+01 0.10000000000000E+01
 d    1 1.00
 0.64500000000000E+00 0.10000000000000E+01
 f    1 1.00
 0.14280000000000E+01 0.10000000000000E+01
 
    3 0
 s    6 1.00
 0.27032382631000E+05 0.57227335211155E-03
 0.40523871392000E+04 0.44353233492995E-02
 0.92232722710000E+03 0.23020107706038E-01
 0.26124070989000E+03 0.92822490667928E-01
 0.85354641351000E+02 0.29378500009671E+00
 0.31035035245000E+02 0.67401604501641E+00
 s    2 1.00
 0.12260860728000E+02 0.63839937025506E+00
 0.49987076005000E+01 0.39534587125718E+00
 s    1 1.00
 0.11703108158000E+01 0.10000000000000E+01
 s    1 1.00
 0.46474740994000E+00 0.10000000000000E+01
 s    1 1.00
 0.18504536357000E+00 0.10000000000000E+01
 p    4 1.00
 0.63274954801000E+02 0.12018332222616E-01
 0.14627049379000E+02 0.83005421790056E-01
 0.44501223456000E+01 0.31991743925964E+00
 0.15275799647000E+01 0.70715542916104E+00
 p    1 1.00
 0.52935117943000E+00 0.10000000000000E+01
 p    1 1.00
 0.17478421270000E+00 0.10000000000000E+01
 d    1 1.00
 0.23140000000000E+01 0.10000000000000E+01
 d    1 1.00
 0.64500000000000E+00 0.10000000000000E+01
 f    1 1.00
 0.14280000000000E+01 0.10000000000000E+01
 
    4 0
 s    6 1.00
 0.27032382631000E+05 0.57227335211155E-03
 0.40523871392000E+04 0.44353233492995E-02
 0.92232722710000E+03 0.23020107706038E-01
 0.26124070989000E+03 0.92822490667928E-01
 0.85354641351000E+02 0.29378500009671E+00
 0.31035035245000E+02 0.67401604501641E+00
 s    2 1.00
 0.12260860728000E+02 0.63839937025506E+00
 0.49987076005000E+01 0.39534587125718E+00
 s    1 1.00
 0.11703108158000E+01 0.10000000000000E+01
 s    1 1.00
 0.46474740994000E+00 0.10000000000000E+01
 s    1 1.00
 0.18504536357000E+00 0.10000000000000E+01
 p    4 1.00
 0.63274954801000E+02 0.12018332222616E-01
 0.14627049379000E+02 0.83005421790056E-01
 0.44501223456000E+01 0.31991743925964E+00
 0.15275799647000E+01 0.70715542916104E+00
 p    1 1.00
 0.52935117943000E+00 0.10000000000000E+01
 p    1 1.00
 0.17478421270000E+00 0.10000000000000E+01
 d    1 1.00
 0.23140000000000E+01 0.10000000000000E+01
 d    1 1.00
 0.64500000000000E+00 0.10000000000000E+01
 f    1 1.00
 0.14280000000000E+01 0.10000000000000E+01
 
    5 0
 s    3 1.00
 0.34061341000000E+02 0.25439307208879E-01
 0.51235746000000E+01 0.19008594890375E+00
 0.11646626000000E+01 0.85244113011042E+00
 s    1 1.00
 0.32723041000000E+00 0.10000000000000E+01
 s    1 1.00
 0.10307241000000E+00 0.10000000000000E+01
 p    1 1.00
 0.80000000000000E+00 0.10000000000000E+01
 
    6 0
 s    3 1.00
 0.34061341000000E+02 0.25439307208879E-01
 0.51235746000000E+01 0.19008594890375E+00
 0.11646626000000E+01 0.85244113011042E+00
 s    1 1.00
 0.32723041000000E+00 0.10000000000000E+01
 s    1 1.00
 0.10307241000000E+00 0.10000000000000E+01
 p    1 1.00
 0.80000000000000E+00 0.10000000000000E+01
 
    7 0
 s    3 1.00
 0.34061341000000E+02 0.25439307208879E-01
 0.51235746000000E+01 0.19008594890375E+00
 0.11646626000000E+01 0.85244113011042E+00
 s    1 1.00
 0.32723041000000E+00 0.10000000000000E+01
 s    1 1.00
 0.10307241000000E+00 0.10000000000000E+01
 p    1 1.00
 0.80000000000000E+00 0.10000000000000E+01
 
    8 0
 s    3 1.00
 0.34061341000000E+02 0.25439307208879E-01
 0.51235746000000E+01 0.19008594890375E+00
 0.11646626000000E+01 0.85244113011042E+00
 s    1 1.00
 0.32723041000000E+00 0.10000000000000E+01
 s    1 1.00
 0.10307241000000E+00 0.10000000000000E+01
 p    1 1.00
 0.80000000000000E+00 0.10000000000000E+01
 
    9 0
 s    3 1.00
 0.34061341000000E+02 0.25439307208879E-01
 0.51235746000000E+01 0.19008594890375E+00
 0.11646626000000E+01 0.85244113011042E+00
 s    1 1.00
 0.32723041000000E+00 0.10000000000000E+01
 s    1 1.00
 0.10307241000000E+00 0.10000000000000E+01
 p    1 1.00
 0.80000000000000E+00 0.10000000000000E+01
 
   10 0
 s    3 1.00
 0.34061341000000E+02 0.25439307208879E-01
 0.51235746000000E+01 0.19008594890375E+00
 0.11646626000000E+01 0.85244113011042E+00
 s    1 1.00
 0.32723041000000E+00 0.10000000000000E+01
 s    1 1.00
 0.10307241000000E+00 0.10000000000000E+01
 p    1 1.00
 0.80000000000000E+00 0.10000000000000E+01
 
[MO]
 Sym=     1a   
 Ene= -.10144031617329E+03
 Spin= Alpha
 Occup= 2.000000
     1 0.10001911423857E+01
     2 -.32181906148481E-01
     3 -.10225221331016E-01
     4 0.34477499968062E-02
     5 -.20653781658170E-02
     6 -.98615339839424E-06
     7 0.65530122044600E-06
     8 -.93696955939726E-05
     9 -.26392837182225E-05
    10 0.17322546323676E-05
    11 -.25658077054205E-04
    12 0.10469675922011E-04
    13 -.68647092093607E-05
    14 0.10116760636479E-03
    15 -.26950358646345E-04
    16 0.17571906901071E-04
    17 -.25929149293072E-03
    18 0.61138310613363E-04
    19 -.39519122416348E-04
    20 0.58475470088846E-03
    21 -.99763712462896E-05
    22 -.10222989137885E-04
    23 0.20199360384174E-04
    24 -.31359293519456E-06
    25 0.36962752750382E-05
    26 -.23298901508628E-05
    27 0.24361579486656E-04
    28 0.24957578487460E-04
    29 -.49319157974116E-04
    30 0.76877840606425E-06
    31 -.90370909010165E-05
    32 0.56864122187033E-05
    33 0.45121544972130E-06
    34 0.21240780971905E-05
    35 -.14926561085425E-05
    36 -.23039254460979E-06
    37 -.31363897692692E-05
    38 0.74733218720515E-06
    39 -.37497650623519E-06
    40 0.28663996036730E-06
    41 0.12552761282336E-05
    42 0.36656610300197E-06
    43 -.35861493984379E-06
    44 0.13620585536514E-05
    45 -.17733366115205E-04
    46 0.10517901526125E-03
    47 -.41912245039235E-03
    48 -.19250597779625E-04
    49 -.12508565676901E-04
    50 0.10423180816590E-04
    51 0.67322183959322E-04
    52 0.24431523714193E-04
    53 -.61171916385692E-04
    54 -.73487624951680E-04
    55 -.91890238884808E-04
    56 -.30528391279200E-03
    57 -.47048329662931E-05
    58 -.60809312330409E-05
    59 0.10785764199334E-04
    60 -.12587488075205E-05
    61 -.41266873520027E-05
    62 -.46988592405003E-05
    63 0.13814820251970E-04
    64 0.29848068359084E-04
    65 -.43662888611053E-04
    66 0.64047974846978E-05
    67 0.22311845199397E-04
    68 0.25728364640781E-04
    69 -.82046455289549E-06
    70 -.15133076361501E-05
    71 0.10320864290695E-05
    72 -.16439304997584E-05
    73 -.11977547603323E-06
    74 -.18548331378254E-06
    75 0.27446992078004E-05
    76 0.21500907232139E-05
    77 -.11992059346501E-05
    78 -.14822900445717E-05
    79 -.35744985685482E-06
    80 0.13593160378933E-05
    81 -.17866185880670E-04
    82 0.10566395845924E-03
    83 -.41901040541797E-03
    84 0.83361838355947E-06
    85 0.22798480671634E-04
    86 0.10746844383275E-04
    87 -.24711961089888E-04
    88 -.69878301608660E-04
    89 -.57722689837175E-04
    90 -.10872042930181E-03
    91 0.11312445622362E-03
    92 -.28761100096334E-03
    93 -.48506072541230E-05
    94 -.60833798164531E-05
    95 0.10933987070576E-04
    96 0.25649841328073E-05
    97 0.19449724784027E-05
    98 0.52379340164809E-05
    99 0.22375243679535E-04
   100 0.22976016788099E-04
   101 -.45351260467635E-04
   102 -.17895504587260E-04
   103 -.55030915956073E-05
   104 -.27945482159787E-04
   105 0.50375815953527E-06
   106 0.16204894627734E-05
   107 0.65040328478030E-06
   108 -.13887464227666E-05
   109 0.15515489275369E-05
   110 0.29034871540229E-06
   111 0.71288392940199E-06
   112 -.37256636848869E-05
   113 -.11629562899370E-05
   114 -.27979435387951E-07
   115 -.35364284380133E-06
   116 0.13458833625354E-05
   117 -.17779521764812E-04
   118 0.10542792439605E-03
   119 -.41855572473539E-03
   120 0.21281020910874E-04
   121 -.12139831899378E-04
   122 0.62115860275492E-05
   123 -.59822997321128E-04
   124 0.56762008324639E-04
   125 -.45292390472745E-04
   126 0.87906759281358E-04
   127 0.42118374048240E-04
   128 -.31235313134288E-03
   129 -.55621914554910E-05
   130 -.31285411543365E-05
   131 0.86907326098276E-05
   132 -.16831898284274E-05
   133 0.76988691716947E-05
   134 -.42003902926184E-05
   135 0.24704240649340E-04
   136 0.87354197450985E-05
   137 -.33439660394439E-04
   138 0.13044085043522E-04
   139 -.38959211212207E-04
   140 0.16910075921521E-04
   141 0.19970593671978E-05
   142 -.11583600072366E-05
   143 0.21599384592750E-05
   144 -.33647578713903E-06
   145 0.67280443138382E-06
   146 -.28332073765435E-05
   147 -.23428605129552E-05
   148 0.88129859977507E-06
   149 -.64654156749584E-07
   150 0.91565088136864E-06
   151 -.17125557881343E-05
   152 -.10227354509220E-03
   153 -.18684441196164E-03
   154 0.15161545267831E-05
   155 -.35623465331957E-04
   156 -.30253982428323E-05
   157 -.16340284126734E-05
   158 -.10342321614743E-03
   159 -.18611816927835E-03
   160 0.30021984378780E-04
   161 0.19490077334502E-04
   162 -.22078553543250E-05
   163 -.27993964911497E-04
   164 0.32074288707137E-03
   165 0.59011011388897E-03
   166 -.19727408145080E-04
   167 0.55099523236413E-04
   168 -.30189659866133E-04
   169 -.27915068047965E-04
   170 0.31979785771309E-03
   171 0.59025363637543E-03
   172 0.49897603941148E-04
   173 -.96326910840214E-05
   174 -.41859928143618E-04
   175 -.16507037395501E-05
   176 -.10336564815978E-03
   177 -.18653990213899E-03
   178 -.31795192498273E-04
   179 0.16227622194702E-04
   180 0.39496334193516E-05
   181 -.27820683557576E-04
   182 0.32068525820166E-03
   183 0.58859898127088E-03
   184 -.41347973919635E-04
   185 -.37670249393843E-04
   186 -.34857041227965E-04
 Sym=     2a   
 Ene= -.19039565879364E+02
 Spin= Alpha
 Occup= 2.000000
     1 0.92325210205643E-06
     2 -.22150368833617E-05
     3 -.47547634524169E-05
     4 -.33860579965634E-04
     5 0.25611872794777E-03
     6 -.59652817080876E-05
     7 0.26927479054487E-05
     8 0.44980700096020E-05
     9 0.26486283569362E-04
    10 -.11455991832345E-04
    11 -.24467222463274E-04
    12 -.71692272811198E-04
    13 0.29029344975421E-04
    14 0.80992783131566E-04
    15 0.13429986512885E-03
    16 -.47328793713497E-04
    17 -.21153494359639E-03
    18 -.41586405880273E-03
    19 0.19922954991366E-03
    20 0.18217588836263E-03
    21 -.25273511595256E-04
    22 -.83944898769356E-05
    23 0.33668001472191E-04
    24 0.10365347320717E-04
    25 0.44692079221745E-05
    26 -.86930269352357E-05
    27 0.58085097159235E-04
    28 0.13075531632429E-04
    29 -.71160628791664E-04
    30 -.32766504641110E-04
    31 0.90156620147207E-05
    32 0.66831093517265E-05
    33 -.55633635833922E-05
    34 0.59291952130204E-05
    35 -.26801293087350E-06
    36 -.20087809013403E-05
    37 -.17796824297406E-05
    38 0.13302501787744E-05
    39 0.94728163949474E-05
    40 -.61751676991674E-05
    41 -.97067309940512E-06
    42 -.35420246419284E-05
    43 -.97362495313292E-02
    44 -.14291870758118E-01
    45 -.82099354989988E-03
    46 0.78986470778558E-03
    47 -.16123337246465E-02
    48 0.25353487143396E-05
    49 0.25542056573405E-04
    50 -.20253811315210E-04
    51 0.12653232457489E-04
    52 0.61130732348780E-04
    53 0.12410749898253E-04
    54 0.20639645503787E-03
    55 0.62444857700230E-03
    56 -.46104298214765E-03
    57 0.70845098347113E-05
    58 -.60912850244937E-05
    59 -.99322481021758E-06
    60 0.18957270261413E-04
    61 -.14353360617017E-04
    62 -.62904586363439E-06
    63 0.15171874623031E-04
    64 -.61222992501435E-05
    65 -.90495753728880E-05
    66 -.83388491196316E-04
    67 0.49558005747676E-04
    68 0.89946639280063E-06
    69 -.12460327689099E-05
    70 0.10496054166549E-05
    71 -.11647870440005E-05
    72 0.14516309458281E-05
    73 -.81460067841499E-06
    74 0.60739107198476E-07
    75 0.22009743825676E-06
    76 -.59359275830037E-06
    77 0.15019866986193E-05
    78 0.30414233426020E-06
    79 -.17860224543974E-01
    80 -.26232348208046E-01
    81 -.14276477560339E-02
    82 0.10014366516102E-02
    83 -.33016169981548E-03
    84 0.29298595846395E-04
    85 -.84057459324705E-04
    86 -.44882558917931E-04
    87 -.57406160178749E-04
    88 0.23029328871287E-03
    89 0.46019813499292E-04
    90 -.38264659701617E-03
    91 0.11417876665743E-04
    92 -.35739904467936E-03
    93 -.59392036182885E-05
    94 -.28937021993086E-05
    95 0.88329058175972E-05
    96 0.14813536740776E-04
    97 0.76309405382702E-06
    98 0.62680461181837E-05
    99 0.15317151073664E-04
   100 0.35975543637281E-04
   101 -.51292694710944E-04
   102 -.63751340033903E-04
   103 -.17138085406675E-04
   104 -.23920888428877E-04
   105 0.38155373844281E-05
   106 0.44107385499079E-05
   107 -.13217203621595E-05
   108 -.51233648445843E-05
   109 -.11516127086491E-05
   110 0.35254695948743E-05
   111 0.42842672204963E-08
   112 -.47660140284947E-05
   113 -.17521956486538E-05
   114 -.30034548222524E-05
   115 0.43490955720788E+00
   116 0.63908211703097E+00
   117 0.33178006165397E-01
   118 -.21872323269237E-01
   119 0.11008991730387E-01
   120 0.14591546252881E-02
   121 -.20057168213584E-06
   122 0.67041000098876E-03
   123 -.24538663875378E-02
   124 0.58822136346167E-04
   125 -.11503486019683E-02
   126 0.14277684825173E-02
   127 -.35325466950479E-03
   128 0.81305240207621E-03
   129 0.32501595763211E-04
   130 -.69496739219289E-04
   131 0.36995143456078E-04
   132 0.38481788912613E-04
   133 -.86382395757545E-05
   134 -.48875401700956E-04
   135 -.14682604501138E-03
   136 0.32706160652855E-03
   137 -.18023556151717E-03
   138 -.17428607625765E-03
   139 0.47633589249224E-04
   140 0.23745615347081E-03
   141 -.56809864610321E-05
   142 0.20500529952651E-05
   143 -.51188592979047E-04
   144 0.23567871567820E-04
   145 -.36462622385917E-04
   146 0.54411835562139E-04
   147 -.15946028424146E-04
   148 0.33712187672983E-04
   149 0.14264868582092E-04
   150 0.29972302253683E-04
   151 -.50895089755371E-04
   152 0.74972978268182E-03
   153 0.33189881061632E-03
   154 -.64715850656101E-04
   155 0.82425455045273E-04
   156 0.12242643718625E-03
   157 0.77033507177224E-03
   158 0.11833707508334E-02
   159 -.21791358886213E-02
   160 -.82949488966862E-03
   161 -.28358744300928E-03
   162 0.37836326138486E-03
   163 -.49920224680520E-04
   164 0.31865021031680E-03
   165 0.55156687211859E-03
   166 0.12175053962722E-04
   167 0.53310213690595E-04
   168 -.35486043434549E-04
   169 0.75636912044331E-03
   170 0.93881608998505E-03
   171 -.27612466061116E-02
   172 -.24082698758796E-03
   173 0.30871801410444E-03
   174 -.86628726922049E-03
   175 0.31648635494605E-04
   176 -.64361654490095E-03
   177 -.46147270369038E-03
   178 -.82765856702478E-04
   179 -.11217191966913E-03
   180 -.10360067186461E-03
   181 -.47563204885411E-04
   182 0.71028073693701E-03
   183 0.54504717542334E-03
   184 -.81190588758892E-04
   185 -.64795904471653E-04
   186 -.78393548434181E-04
 Sym=     3a   
 Ene= -.19039563071308E+02
 Spin= Alpha
 Occup= 2.000000
     1 0.93915171415130E-06
     2 -.22565351884425E-05
     3 -.48057265382976E-05
     4 -.35852395988908E-04
     5 0.26810285876657E-03
     6 0.49001367454931E-06
     7 -.71376366325727E-05
     8 0.33230361524650E-05
     9 -.30215054373445E-05
    10 0.32333550902308E-04
    11 -.19353395040030E-04
    12 0.11275230132732E-04
    13 -.89491626108832E-04
    14 0.67462632381606E-04
    15 -.32873235410501E-04
    16 0.17606295761489E-03
    17 -.18736750425665E-03
    18 0.12948952299430E-04
    19 -.47800523775405E-03
    20 0.96035873167192E-04
    21 -.45674785706106E-05
    22 -.29619579136385E-04
    23 0.34187057706995E-04
    24 0.25518818544372E-05
    25 0.10236877003231E-04
    26 -.66160466986592E-05
    27 -.25270602514712E-06
    28 0.65448001717378E-04
    29 -.65195295692231E-04
    30 -.34942563494594E-05
    31 -.17289696132869E-04
    32 0.35841915512393E-04
    33 -.18555525582785E-05
    34 -.38687170600453E-05
    35 0.42576677187090E-05
    36 -.36867394644989E-06
    37 -.53129592260567E-05
    38 -.35908222040232E-05
    39 0.28581589401305E-05
    40 0.10503387825241E-04
    41 -.21214384627607E-05
    42 0.20209983878960E-05
    43 -.26081065796154E-01
    44 -.38311603756376E-01
    45 -.20599363608897E-02
    46 0.14340542871394E-02
    47 -.61836444943959E-03
    48 0.64969369343706E-04
    49 0.98893231153038E-04
    50 -.51925018444991E-04
    51 -.18545232216872E-03
    52 -.20506340528499E-03
    53 0.55997863672785E-04
    54 0.16650377325576E-03
    55 -.20573733717721E-03
    56 -.48030240992998E-03
    57 0.81535513112785E-05
    58 -.15636449474001E-04
    59 0.74828981627230E-05
    60 -.48780885728197E-05
    61 -.75929188359159E-05
    62 -.78482973398466E-05
    63 -.16870653995072E-04
    64 0.67414172566056E-04
    65 -.50543518570985E-04
    66 0.35796651294681E-04
    67 0.35200829405735E-04
    68 0.22206785825948E-04
    69 0.12709699694913E-05
    70 -.15696441625050E-05
    71 0.36269432149824E-06
    72 -.53662325174392E-05
    73 -.24619113940099E-05
    74 -.30205784317232E-05
    75 0.36610473679531E-05
    76 0.45678100227180E-05
    77 0.25339729369693E-05
    78 -.26405348036759E-05
    79 0.43426184846561E+00
    80 0.63812660122171E+00
    81 0.33129911991060E-01
    82 -.21841917868322E-01
    83 0.11035571914572E-01
    84 -.64269957911391E-03
    85 0.11032843210447E-02
    86 0.96250835409965E-03
    87 0.10244417616929E-02
    88 -.18733886326644E-02
    89 -.16424736268796E-02
    90 -.33626791276811E-03
    91 0.12435586029870E-02
    92 0.10922096108850E-02
    93 -.84955289237578E-05
    94 -.26980204110730E-04
    95 0.35475733034488E-04
    96 -.75698454628772E-04
    97 0.37711005261888E-04
    98 0.10041362760099E-04
    99 0.45682335811724E-04
   100 0.12320301876883E-03
   101 -.16888535458055E-03
   102 0.35397020349060E-03
   103 -.19000502445234E-03
   104 -.45771181349539E-04
   105 0.61204251063533E-05
   106 0.25365761832734E-04
   107 -.50814598771327E-04
   108 0.37251655068456E-04
   109 -.32810266166137E-04
   110 0.34761609412847E-04
   111 -.45463067021858E-04
   112 -.12214744893007E-05
   113 0.33413328848391E-04
   114 -.19289409856020E-04
   115 0.17247103146484E-01
   116 0.25358866658736E-01
   117 0.12382587106407E-02
   118 -.56752894213881E-03
   119 -.93463242211524E-03
   120 0.65889135264098E-04
   121 -.68157300710470E-05
   122 0.21765615639583E-04
   123 -.21363943047858E-03
   124 -.18242565400299E-04
   125 -.54678663820863E-04
   126 -.60241424750101E-03
   127 -.71724677963023E-04
   128 -.35825134528008E-03
   129 0.14365675223288E-04
   130 -.10553978344324E-04
   131 -.38116968789637E-05
   132 -.15835520078550E-04
   133 0.18736460458398E-05
   134 -.14537052371267E-04
   135 -.76778934309838E-04
   136 0.76164405739282E-04
   137 0.61452857055694E-06
   138 0.28745239208328E-04
   139 -.71416222279467E-05
   140 0.67596097704827E-04
   141 -.15604381322741E-05
   142 0.56707474003675E-06
   143 -.41346775734554E-05
   144 0.27114424438874E-05
   145 -.34406043920962E-05
   146 0.47643772690563E-05
   147 -.61789500081871E-06
   148 0.26797937918691E-05
   149 0.78287480251776E-06
   150 0.27232350988057E-05
   151 0.14691400678387E-04
   152 -.62244970350366E-03
   153 -.40834247215249E-03
   154 0.11847228268244E-03
   155 -.45699844586376E-05
   156 -.11727423379702E-03
   157 -.44042260129873E-05
   158 0.83694502512389E-03
   159 0.20582647780870E-03
   160 -.79159341236948E-04
   161 -.14001238508314E-03
   162 0.12960597674244E-03
   163 0.75438770267517E-03
   164 0.94059547354742E-03
   165 -.27401659445774E-02
   166 -.23187905555937E-03
   167 -.19016742383384E-03
   168 -.90111892081435E-03
   169 -.22627499420795E-06
   170 0.76094981793163E-03
   171 0.36741765908823E-03
   172 0.73220871630979E-04
   173 -.19343038201763E-05
   174 -.14430007655247E-03
   175 0.77360301541110E-03
   176 0.11249453580172E-02
   177 -.22116537912291E-02
   178 0.67649893127593E-03
   179 -.64254176221809E-03
   180 0.18800152965358E-03
   181 -.65777506592150E-04
   182 0.34528682363613E-03
   183 0.63498450566866E-03
   184 -.63759174711484E-04
   185 -.13949964268325E-04
   186 -.20680509330158E-04
 Sym=     4a   
 Ene= -.19039512176288E+02
 Spin= Alpha
 Occup= 2.000000
     1 0.10169937941030E-05
     2 -.24538974207398E-05
     3 -.51997918840782E-05
     4 -.39972441537071E-04
     5 0.29591271934586E-03
     6 0.58156378390785E-05
     7 0.33616256432828E-05
     8 0.38971806291975E-05
     9 -.26426896807344E-04
    10 -.15026420760294E-04
    11 -.22475474584136E-04
    12 0.73257558551632E-04
    13 0.41172390494007E-04
    14 0.77847674763372E-04
    15 -.14511433650834E-03
    16 -.78885295000481E-04
    17 -.21427214058941E-03
    18 0.38595620456482E-03
    19 0.23418532081765E-03
    20 0.11913428214595E-03
    21 -.23431682511284E-04
    22 -.16322407243635E-04
    23 0.39754089754919E-04
    24 -.12601205396154E-04
    25 0.51415218047646E-05
    26 0.16013525448997E-05
    27 0.47459005945919E-04
    28 0.28849402944543E-04
    29 -.76308408890462E-04
    30 0.34190594036130E-04
    31 -.28357797712591E-04
    32 -.14803676869778E-04
    33 0.45524942015001E-05
    34 0.54684030911214E-05
    35 0.46478369112527E-05
    36 0.21408715253716E-05
    37 -.16426330336182E-05
    38 -.38519118590290E-05
    39 -.82486834264083E-05
    40 -.56939995904522E-05
    41 -.23838157101073E-05
    42 0.19887433888542E-05
    43 0.43449460634898E+00
    44 0.63847164407023E+00
    45 0.33139124622419E-01
    46 -.21826456370300E-01
    47 0.10921007648933E-01
    48 -.56304993411249E-03
    49 -.12734799854264E-02
    50 0.78964830005634E-03
    51 0.98689320129563E-03
    52 0.21182774613947E-02
    53 -.13641316130488E-02
    54 -.79734446401909E-03
    55 -.10625318246732E-02
    56 0.93235507195471E-03
    57 -.81211131050909E-04
    58 0.34764541779331E-04
    59 0.46446589271578E-04
    60 0.38549814019748E-04
    61 -.82151376807214E-05
    62 0.24201546162545E-04
    63 0.38356244239085E-03
    64 -.15311294920445E-03
    65 -.23044949318640E-03
    66 -.18300361692246E-03
    67 0.42513492478528E-04
    68 -.12229696175454E-03
    69 -.28901692065021E-04
    70 0.20457425036664E-04
    71 -.64713476727490E-04
    72 0.23847975696228E-04
    73 -.25184653101517E-04
    74 0.22339825209231E-04
    75 0.14927713177064E-04
    76 -.22618627144352E-05
    77 0.64482414604580E-04
    78 0.10379921331241E-04
    79 0.25664081526546E-01
    80 0.37728131635033E-01
    81 0.18748826898645E-02
    82 -.98092027404457E-03
    83 -.71731895172846E-03
    84 -.36061901832315E-04
    85 0.73234789080153E-04
    86 0.53527523132893E-04
    87 0.13279837007403E-03
    88 -.18532826533947E-03
    89 -.13306751898064E-03
    90 0.28175222026930E-03
    91 -.38068686123633E-03
    92 -.48741304815523E-03
    93 -.15002114420124E-04
    94 0.15398203481233E-04
    95 -.39608906110929E-06
    96 -.58075181541111E-05
    97 0.13105002250715E-04
    98 0.14873459009978E-04
    99 0.54101532983955E-04
   100 -.38672785874709E-04
   101 -.15428747109246E-04
   102 0.69111024786685E-04
   103 -.55359164904792E-04
   104 -.60543627918588E-04
   105 0.37780864073012E-06
   106 0.31189174817527E-05
   107 -.50869431502580E-05
   108 0.45809802614092E-05
   109 -.42023667077824E-05
   110 0.38168051011054E-05
   111 -.50878637433048E-05
   112 0.17899804535567E-07
   113 0.30080453078869E-05
   114 -.22986918681107E-05
   115 0.10778042715711E-01
   116 0.15851517269457E-01
   117 0.75102503791007E-03
   118 -.41570452807736E-03
   119 0.28564599351097E-03
   120 0.12852411038226E-05
   121 0.16050587140605E-04
   122 0.18747642715800E-04
   123 0.62910515762749E-04
   124 -.61957990360673E-04
   125 -.81895427180990E-04
   126 0.16085875004370E-03
   127 0.30443062197807E-03
   128 -.36985824606045E-03
   129 -.87943288171221E-05
   130 0.79751608847577E-06
   131 0.79968127286464E-05
   132 -.86939856852959E-05
   133 0.98662732299367E-05
   134 -.60769604749071E-05
   135 0.53450139825041E-04
   136 -.11269903122891E-05
   137 -.52323149512752E-04
   138 0.19455916343531E-04
   139 -.40194469974956E-04
   140 0.42435967027497E-04
   141 0.56953652141801E-05
   142 0.52699199504798E-06
   143 -.27731100507817E-05
   144 -.24645069733642E-05
   145 -.36983658951691E-05
   146 0.18943894611903E-05
   147 -.51766272919924E-05
   148 0.29913319404538E-05
   149 0.18261280883912E-05
   150 0.71608246987690E-05
   151 0.77272359546325E-03
   152 0.11876388313343E-02
   153 -.22084558288341E-02
   154 0.25149965267709E-03
   155 0.86612120151092E-03
   156 0.34612774419401E-03
   157 0.79810537926658E-04
   158 -.50581031374892E-03
   159 -.58358883794215E-03
   160 -.13582991048613E-03
   161 0.99942084638121E-04
   162 -.53566573004436E-04
   163 0.12685579560428E-04
   164 0.81560232350949E-03
   165 0.35287437152427E-03
   166 -.51841192591564E-04
   167 0.91203219933717E-04
   168 -.15023074035459E-03
   169 -.25828779571580E-05
   170 0.44335339517485E-03
   171 0.41097000343625E-03
   172 0.22568415795377E-04
   173 -.17217998166433E-04
   174 -.11100544890505E-03
   175 0.15524615205732E-04
   176 0.81175994748211E-03
   177 0.11806450175740E-03
   178 0.18156165684637E-03
   179 -.46572584300769E-04
   180 0.10747983330858E-03
   181 0.75151198004284E-03
   182 0.10140738354878E-02
   183 -.26869894922713E-02
   184 0.18316300373250E-03
   185 0.63528490262093E-04
   186 -.93865700241864E-03
 Sym=     5a   
 Ene= -.92666729564780E+01
 Spin= Alpha
 Occup= 2.000000
     1 -.29289365323291E+00
     2 -.21826421025131E+00
     3 0.82942620213020E+00
     4 0.29074161216872E-01
     5 -.10588004663072E-01
     6 -.68974373318212E-04
     7 0.45980091856190E-04
     8 -.66696333898889E-03
     9 -.59293697826183E-04
    10 0.39168383767637E-04
    11 -.57194095026214E-03
    12 0.44530881046549E-04
    13 -.28758166505569E-04
    14 0.42411180656165E-03
    15 -.12841744115213E-03
    16 0.83545981528772E-04
    17 -.12320429719930E-02
    18 0.28619879058461E-03
    19 -.18519489346366E-03
    20 0.27368084299320E-02
    21 -.44539173922646E-04
    22 -.46081138801349E-04
    23 0.90620312723995E-04
    24 -.11930523633673E-05
    25 0.16354752897146E-04
    26 -.10499660751090E-04
    27 0.10438600027048E-03
    28 0.10714451525326E-03
    29 -.21153051552374E-03
    30 0.32300648234002E-05
    31 -.38638104734391E-04
    32 0.24461208796030E-04
    33 0.21612314129026E-05
    34 0.83564408463016E-05
    35 -.70905848649731E-05
    36 -.97389916287230E-06
    37 -.12463942124932E-04
    38 0.36994048911371E-05
    39 -.19256970497426E-05
    40 0.12526002555603E-05
    41 0.58136129638495E-05
    42 0.13648561492150E-05
    43 -.87145503908176E-07
    44 0.62426626227907E-05
    45 -.90711781408969E-04
    46 0.50580996700334E-03
    47 -.18744603023331E-02
    48 -.71319333773632E-04
    49 -.45222350974676E-04
    50 0.30527291138353E-04
    51 0.27706914708752E-03
    52 0.99661959218184E-04
    53 -.20169079061417E-03
    54 -.34421379669919E-03
    55 -.43421511840414E-03
    56 -.13801505020676E-02
    57 -.14150813273448E-04