 operating system is UNIX !

 force (missouri) : TURBOMOLE V7.2 ( 21454 ) 4 Oct 2017 at 12:24:43
 Copyright (C) 2017 TURBOMOLE GmbH, Karlsruhe


    2018-02-07 14:21:52.334 



                             T U R B O M O L E   

                          a o f o r c e - program

                        using direct algorithms for

                       SCF level calculations of
                         * harmonic force constants
                         * hyperpolarizabilities
                         * IR and RAMAN intensities
                         * VCD intensities

                       DFT level calculations of
                         * harmonic force constants
                         * IR intensities
                                                   
       Stephan Boecker, Peter Deglmann, Filipp Furche and Marco Haeser
                          Quantum Chemistry Group
                          Universitaet  Karlsruhe
                                   Germany

 
 
 
 
     References :
 
       RI-J implementation:
         Peter Deglmann, Klaus May, Filipp Furche, Reinhart Ahlrichs
                 Chem. Phys. Lett. 384:103 (2004)
 
       Efficiency, technical details:
         Peter Deglmann, Filipp Furche, Reinhart Ahlrichs
                 Chem. Phys. Lett. 362:511 (2002)
 
       Search of lowest eigenvalues by iterative diagonalization:
         Peter Deglmann, Filipp Furche
                 J. Chem. Phys. 117:9535 (2002)
 
       Vibrational circular dichroism implementation:
        Kevin Reiter, Michael Kuehn, Florian Weigend
                 J. Chem. Phys. 146:054102 (2017)  
 
 


              +--------------------------------------------------+
              | Atomic coordinate, charge and isotop information |
              +--------------------------------------------------+

                    atomic coordinates            atom    charge  isotop
        -12.86871272    6.54900276    0.00652914    o      8.000     0
        -10.82297687    5.43394448    0.00289376    c      6.000     0
         -8.37339773    6.69472945    0.00865491    c      6.000     0
         -6.14212000    5.36176898    0.00494541    c      6.000     0
         -6.10465984    2.63854137   -0.00517653    c      6.000     0
         -8.45547573    1.32930428   -0.01158976    c      6.000     0
        -10.66360993    2.65843903   -0.00775436    c      6.000     0
         -3.04883871    6.46477488    0.01109665    s     16.000     0
         -1.99990584    3.28770023   -0.00024157    c      6.000     0
         -3.81330676    1.58056013   -0.00751086    n      7.000     0
          0.60946903    2.68632560   -0.00121938    c      6.000     0
          1.44125726   -0.58038206   -0.01278789    s     16.000     0
          2.43472654    4.34194238    0.00589154    n      7.000     0
          4.79551045    3.26693629    0.00377817    c      6.000     0
          4.71581387    0.34094062   -0.00691310    c      6.000     0
          5.70950423   -0.37808884    1.67777665    h      1.000     0
          5.71210951   -0.36584099   -1.69524410    h      1.000     0
          6.78956355    4.38666885    0.00935901    o      8.000     0
         -8.35015946   10.25892960    0.02149164    br    35.000     0
         -8.42605142   -0.73858123   -0.01947541    h      1.000     0
        -12.49414422    1.69446851   -0.01267993    h      1.000     0
 
       center of nuclear mass  :   -4.12780271    5.09258871    0.00515867
       center of nuclear charge:   -3.97768221    4.87304007    0.00444447

              +--------------------------------------------------+
              |               basis set information              |
              +--------------------------------------------------+

              we will work with the 1s 3p 5d 7f 9g ... basis set
              ...i.e. with spherical basis functions...

   type   atoms  prim   cont   basis
   ---------------------------------------------------------------------------
    o        2     24     14   def2-SV(P)   [3s2p1d|7s4p1d]
    c       10     24     14   def2-SV(P)   [3s2p1d|7s4p1d]
    s        2     36     18   def2-SV(P)   [4s3p1d|10s7p1d]
    n        2     24     14   def2-SV(P)   [3s2p1d|7s4p1d]
    h        4      4      2   def2-SV(P)   [2s|4s]
    br       1     74     32   def2-SV(P)   [5s4p3d|14s10p6d]
   ---------------------------------------------------------------------------
   total:   21    498    272
   ---------------------------------------------------------------------------

   total number of primitive shells          :   88
   total number of contracted shells         :  120
   total number of cartesian basis functions :  291
   total number of SCF-basis functions       :  272

 
             FOUND RI-J FLAG !
 

 NOTE: THIS IS A PRELIMINARY IMPLEMENTATION. THE RI APPROXIMATION IS
       PRESENTLY USED FOR CPKS CONTRIBUTIONS TO THE HESSIAN ONLY! SEE
       MANUAL FOR FURTHER DETAILS.

  
 AUXILIARY BASIS SET information:

              we will work with the 1s 3p 5d 7f 9g ... basis set
              ...i.e. with spherical basis functions...

   type   atoms  prim   cont   basis
   ---------------------------------------------------------------------------
    o        2     70     49   def2-SV(P)   [6s4p3d1f1g|12s5p4d2f1g]
    c       10     70     49   def2-SV(P)   [6s4p3d1f1g|12s5p4d2f1g]
    s        2     77     51   def2-SV(P)   [8s4p3d1f1g|14s5p5d2f1g]
    n        2     70     49   def2-SV(P)   [6s4p3d1f1g|12s5p4d2f1g]
    h        4     16     11   def2-SV(P)   [3s1p1d|5s2p1d]
    br       1     89     58   def2-SV(P)   [8s4p3d2f1g|19s5p5d3f1g]
   ---------------------------------------------------------------------------
   total:   21   1287    890
   ---------------------------------------------------------------------------

   total number of primitive shells          :  140
   total number of contracted shells         :  282
   total number of cartesian basis functions : 1101
   total number of SCF-basis functions       :  890


 symmetry group of the molecule :   c1 

 the group has the following generators :
   c1(z)

    1 symmetry operations found

 there are 1 real representations :   a   

 maximum number of shells which are related by symmetry :  1


 determining totally symmetric integral contributions 
    - equivalent to irreducible tensor elements - 
 which can be formed within each triple of representations :

             representation triple      contributions

              a     a     a               1

    mo occupation :
   irrep   mo's   occupied
    a      272       81
 
 number of basis functions   :                    272
 number of occupied orbitals :                     81
 
  MOs are in ASCII format !


 reading orbital data $scfmo  from file mos
 orbital characterization : scfconv=7
 time elapsed for calculating density matrices :   0.004 sec

 number of non-frozen orbitals          :   272
 number of non-frozen occupied orbitals :    81
 Blocking parameters 
 shells:
    index      start shell   last shell  start bf    last bf    #bf 
       1             1         120             1        291    291
  
           ----------------------
               RI - INFORMATION
           ----------------------

 biggest AO integral is expected to be    21.668154127

 Threshold for integral neglect (rithr2):   0.86E-11
 Threshold for integral neglect (rithr1):   0.86E-11

 Contributions to RI integral batches: 
  neglected integral batches:                  2087
  direct contribution:                            0
  memory contribution:                  5173
 Core memory available (ricore):              5000 MiB
 Core memory needed for (P|Q) and Cholesky:      7 MiB
 Core memory used for integrals:               251 MiB
 
 ****************************************
 Memory allocated for RIDFT: 257 MiB
 ****************************************
 
  
           ------------------
           density functional
           ------------------
 PBE0 hybrid functional
 exchange:    3/4 (LDA+PBE) + 1/4 HF
 correlation: LDA (PW) + PBE

 iterations will be done with small grid
  
 spherical integration : Lebedev's spherical grid
 spherical gridsize    :                     5
    i.e. gridpoints    :                   590
 value for diffuse not defined
 radial integration    : Chebyshev 2nd kind (scaling 3)
 radial gridsize       :                     8
 integration cells     :                    21
 partition function    : becke
 partition sharpness   :                     3
  
 
 Derivatives of quadrature weights will be included
 
          Overall gridpoints after grid construction =        375862
 Ordering of quadrature gridpoints disabled.
 
 
 
 
 OCCUPIED-OCCUPIED TENSOR SPACES :

          IRREP   tensor space dimension   number of roots

           a              6561                  57
 
 OCCUPIED-VIRTUAL TENSOR SPACES :

          IRREP   tensor space dimension   number of roots

           a             15471                  57
 
 
 
 
 CONSTRUCTING integral bounds

 setting up bound for integral derivative estimation

 increment for numerical differentiation : 0.00050000
 
 machine precision:   2.220446049250313E-016

 integral neglect threshold       :  0.10E-09
 integral storage threshold THIZE :  0.10E-04
 integral storage threshold THIME :         5

 
 
 
 PREPARING NUMERICAL INTEGRATION
 
 Remaining core memory for DFT =                  4878 MB
 
 Memory needed per atom    =                   995 KiB
 
     i. e.                    21 atoms per loop

 Calculating ground state density on molecular grid

 Integral of ground state density: N =   162.0000032953913    


 
 
 CONSTRUCTING first deriv. of <mu|x,y,z|nu> -> Dip. deriv.
  dipole integral derivatives will be neglected if
  expon. factor <0.171821E-11
      ...terminated. cpu:       0.01       wall:       0.02
 
 
 
 
 CONSTRUCTING first deriv. of  <mu|nu>
                               <mu|h|nu>    -> RHS
              second deriv. of <mu|nu>      -> Hessian
                               <mu|h|nu>    -> Hessian
                               nucl. rep.   -> Hessian
     integrals are neglected if expon. factor <  1.718213058419244E-013
      ...terminated. cpu:       0.67       wall:       0.66
 
 
 
 
 CONSTRUCTING second deriv. of 2e energy    -> Hessian
   treating Coulomb (and exchange) contribution
     integrals will be neglected if total contribution <  1.718213058419244E-009
      ...terminated. cpu:     141.06       wall:     141.06
   treating exchange-correlation contribution
      ...terminated. cpu:     240.02       wall:     240.03
 
 
 
 
 CONSTRUCTING S(i,j)xi
      ...terminated. cpu:       0.03       wall:       0.03
 
 
 
 
 CONSTRUCTING <i|x,y,z|j>*S(i,j)xi          -> Dip. deriv.
      ...terminated. cpu:       0.02       wall:       0.02
 
 
 
 
 CONSTRUCTING epsilon(i)*S(i,j)xi*S(i,j)chi -> Hessian
      ...terminated. cpu:       0.01       wall:       0.01
 
 
 
 
 CONSTRUCTING G(a,i)[S(k,l)xi]              -> RHS
              G(i,j)[S(k,l)xi]*S(i,j)chi    -> Hessian
 
         Maximum core memory set to                   5000 MB
         This corresponds to                  7640 vectors in CAO basis
      ...terminated. cpu:     435.48       wall:     435.49
 
 
 
 
 CONSTRUCTING G(mu,nu)[D(kap,lam)]xi
 
          Maximum core memory set to                   5000 MB
          Atoms treated simultaneously :                    21
      ...terminated. cpu:     282.14       wall:     282.14
 
 
 
 
 CONSTRUCTING F(a,i)xi                      -> RHS
              F(i,j)xi*S(i,j)chi            -> Hessian
 
        Maximum core memory set to                  5000 MB
        This corresponds to                 11307 vectors in CAO basis
      ...terminated. cpu:       0.51       wall:       0.51
 
 
 
 
 CONSTRUCTING epsilon(i)*S(a,i)xi           -> RHS
      ...terminated. cpu:       0.09       wall:       0.09
 
 
 
 
 SOLVING CPHF equations
 
 Residuum convergence criterium   :  1.000000000000000E-005
 
 Maximum number of Davidson iterations set to                    25
  Switching to small grid
        preparing numerical integration ....
          Overall gridpoints after grid construction =        123154

 Calculating ground state density on molecular grid

 Integral of ground state density: N =   162.0000414559393    




                       Nonorthonormal Krylov Space Iteration


 total number of roots to be determined:  57


 maximum core memory set to  5000 MB,
 corresponding to     7544 vectors in CAO basis


 maximum number of simultaneously treated vectors (including degeneracy):       57


 Iteration IRREP Converged      Max. Euclidean
                 roots          residual norm

    1       a        0        9.148304910064235D-02
 
    2       a        0        1.412938882047240D-02
 
    3       a        0        1.560368741984663D-03
 
    4       a        0        1.738700442623490D-04
 
    5       a       56        1.134082781258397D-05
 
    6       a       57        9.076306003015766D-06
 

 converged!

  Switching to fine grid
        preparing numerical integration ....
          Overall gridpoints after grid construction =        375862

 Calculating ground state density on molecular grid

 Integral of ground state density: N =   162.0000032953913    



 Iteration IRREP Converged      Max. Euclidean
                 roots          residual norm

    7       a       57        8.409939819783019D-06
 

 converged!

      ...terminated. cpu:    1147.22       wall:    1147.22
 
 
 
 
 CONSTRUCTING <a|x,y,z|i>*U(a,i)xi          -> Dip. deriv.
      ...terminated. cpu:       0.02       wall:       0.02
 
 
 
 
 CONSTRUCTING RHS(a,i)xi*U(a,i)chi          -> Hessian
      ...terminated. cpu:       0.01       wall:       0.01
 
 
 
 

            -----------------------
            permanent dipole moment
            -----------------------

                                   x                y                z
    electronic part       :  645.0648728218  -790.5523508132    -0.7241166710
     nuclear   part       : -640.4068365546   784.5594508377     0.7155600937
     total                :    4.6580362672    -5.9928999755    -0.0085565773

 with reference to the point :   0.0000000        0.0000000        0.0000000
 (given in atomic units)
    | dipole |       :   19.2926922291  debye

   ***  dipole moment & cartesian dipole gradients written onto
        $dipole, $dipgrad,  file=<dipgrad>  ***

             -----------------------------------
             rotational and vibrational analysis
             -----------------------------------


            ==============================================================
            ATOMIC WEIGHTS (average over the natural occurance of isotops)
            ==============================================================
            ('*' denotes special isotop !)
              1     o                15.99940
              2     c                12.01115
              3     c                12.01115
              4     c                12.01115
              5     c                12.01115
              6     c                12.01115
              7     c                12.01115
              8     s                32.06400
              9     c                12.01115
             10     n                14.00670
             11     c                12.01115
             12     s                32.06400
             13     n                14.00670
             14     c                12.01115
             15     c                12.01115
             16     h                 1.00797
             17     h                 1.00797
             18     o                15.99940
             19     br               79.90900
             20     h                 1.00797
             21     h                 1.00797

          -------------------------------------------------
          CARTESIAN FORCE CONSTANT MATRIX (hartree/bohr**2)
         (translational & rotational space projected out)
          -------------------------------------------------

   ATOM              1 o                           2 c 
                  dx        dy        dz        dx        dy        dz
   1 o     dx  0.6125363
           dy -0.2853399 0.2482027
           dz -0.0009044 0.0007342 0.0333274
   2 c     dx -0.5179132 0.2341156 0.0007522 0.8305603
           dy  0.2355249-0.2254887-0.0005093-0.1619035 0.6209926
           dz  0.0007544-0.0005099-0.0728671-0.0003845 0.0015646 0.1985368
   3 c     dx -0.0912901 0.0008662-0.0000378-0.1713199-0.0507993-0.0002342
           dy  0.0146330 0.0187987 0.0000021-0.0738523-0.1369300-0.0002896
           dz  0.0000174-0.0000034 0.0194708-0.0003222-0.0002755-0.0678371
   4 c     dx  0.0086188-0.0018797-0.0000041-0.0519044-0.0100206-0.0000661
           dy -0.0163011-0.0014433-0.0000261 0.0176039 0.0344586 0.0001397
           dz -0.0000575-0.0000208 0.0038254 0.0000392 0.0001256-0.0001066
   5 c     dx -0.0079272 0.0092962 0.0000320-0.0024833-0.0242976-0.0000891
           dy  0.0062365-0.0005737 0.0000001-0.0152700-0.0144716-0.0000384
           dz  0.0000187 0.0000017 0.0003455-0.0000542-0.0000436-0.0065371
   6 c     dx  0.0070402-0.0148473-0.0000567 0.0163060 0.0514524 0.0002054
           dy -0.0007451-0.0060035-0.0000370 0.0297293-0.0119322-0.0000317
           dz -0.0000020-0.0000436 0.0033144 0.0001231-0.0000222 0.0008215
   7 c     dx -0.0127682 0.0627881 0.0002327-0.1097121-0.0401175-0.0001774
           dy  0.0416569-0.0463597-0.0002425-0.0097292-0.2150763-0.0005434
           dz  0.0001515-0.0002332 0.0202004-0.0000614-0.0005674-0.0752290
   8 s     dx -0.0028398-0.0024710-0.0000106 0.0097845 0.0134146 0.0000516
           dy -0.0021173 0.0003612-0.0000002 0.0082687 0.0039577 0.0000084
           dz -0.0000105 0.0000010-0.0001027 0.0000362 0.0000099 0.0034083
   9 c     dx -0.0113245 0.0089811 0.0000294 0.0047349-0.0118123-0.0000424
           dy  0.0022314-0.0017524-0.0000040-0.0029763-0.0002222-0.0000067
           dz  0.0000019-0.0000003-0.0002681-0.0000095-0.0000117 0.0008262
  10 n     dx  0.0079852-0.0072566-0.0000245-0.0025662 0.0128687 0.0000473
           dy  0.0008057 0.0018036 0.0000050-0.0023434-0.0041800-0.0000096
           dz  0.0000079 0.0000007 0.0004720-0.0000092-0.0000010-0.0020716
  11 c     dx  0.0108268-0.0073154-0.0000222-0.0075742 0.0073100 0.0000224
           dy -0.0008566 0.0013584 0.0000072 0.0000994-0.0029860-0.0000176
           dz  0.0000029 0.0000032-0.0006280-0.0000048-0.0000130 0.0016830
  12 s     dx -0.0009387 0.0003653 0.0000011 0.0008312-0.0000349 0.0000004
           dy  0.0016402-0.0008592-0.0000026-0.0013776 0.0005256 0.0000018
           dz  0.0000063-0.0000041 0.0000680-0.0000051 0.0000034-0.0002024
  13 n     dx -0.0065903 0.0045243 0.0000144 0.0042640-0.0045608-0.0000148
           dy -0.0002471 0.0003937 0.0000010 0.0000895-0.0003333 0.0000004
           dz -0.0000045 0.0000038 0.0000807 0.0000028-0.0000028-0.0002416
  14 c     dx  0.0056891-0.0035747-0.0000112-0.0039474 0.0030647 0.0000095
           dy -0.0014050 0.0010173 0.0000033 0.0008653-0.0012883-0.0000046
           dz -0.0000009 0.0000014-0.0000398 0.0000001-0.0000030 0.0000410
  15 c     dx -0.0000944 0.0000283-0.0000001 0.0000441-0.0000217-0.0000001
           dy  0.0007813-0.0003826-0.0000016-0.0006261 0.0002767 0.0000016
           dz  0.0000026-0.0000016 0.0001010-0.0000020 0.0000019-0.0002323
  16 h     dx -0.0002640 0.0001365 0.0000221 0.0002082-0.0000679-0.0000502
           dy -0.0000280 0.0000186-0.0000105 0.0000271-0.0000332 0.0000224
           dz -0.0000310 0.0000189-0.0000063 0.0000247-0.0000107 0.0000109
  17 h     dx -0.0002639 0.0001366-0.0000213 0.0002081-0.0000683 0.0000499
           dy -0.0000282 0.0000186 0.0000107 0.0000273-0.0000331-0.0000227
           dz  0.0000304-0.0000186-0.0000064-0.0000243 0.0000103 0.0000109
  18 o     dx -0.0032811 0.0020457 0.0000064 0.0022789-0.0016569-0.0000051
           dy -0.0008241 0.0005198 0.0000017 0.0005675-0.0002997-0.0000010
           dz -0.0000050 0.0000036-0.0000045 0.0000035-0.0000025 0.0000468
  19 br    dx  0.0014967-0.0022480-0.0000073 0.0022302-0.0211614-0.0000770
           dy  0.0009242 0.0074157 0.0000364 0.0067483-0.0393610-0.0001572
           dz  0.0000050 0.0000365-0.0025543 0.0000227-0.0001702 0.0042076
  20 h     dx -0.0005511 0.0019854 0.0000088-0.0039944-0.0013560-0.0000141
           dy  0.0008085-0.0013922 0.0000015 0.0016797 0.0028460-0.0000279
           dz  0.0000030 0.0000033-0.0017611-0.0000016-0.0000296 0.0106129
  21 h     dx  0.0018533-0.0003369 0.0000012-0.0000354 0.0042437 0.0000142
           dy  0.0026498 0.0043470 0.0000305-0.0317432-0.0104217-0.0000784
           dz  0.0000136 0.0000272-0.0029673-0.0001257-0.0000530 0.0051190

   ATOM              3 c                           4 c 
                  dx        dy        dz        dx        dy        dz
   3 c     dx  0.6522958
           dy -0.0860316 0.4846829
           dz -0.0000361 0.0014084 0.0886135
   4 c     dx -0.3224125 0.1543435 0.0004211 0.6668998
           dy  0.1276031-0.1773613-0.0004059-0.1259000 0.5820956
           dz  0.0003169-0.0003911-0.0492795-0.0001427 0.0016498 0.1193724
   5 c     dx  0.0100396 0.0214393 0.0000803-0.0968745-0.0133190-0.0000601
           dy  0.0452655-0.0253535-0.0000962-0.0212290-0.2379867-0.0006405
           dz  0.0001706-0.0001081 0.0067944-0.0000956-0.0006398-0.0684897
   6 c     dx -0.0275353 0.0043685 0.0000015 0.0139769-0.0294743-0.0001088
           dy -0.0063725 0.0003434-0.0000046-0.0207908-0.0267713-0.0001361
           dz -0.0000399 0.0000014 0.0005403-0.0000734-0.0001389 0.0056042
   7 c     dx  0.0180173-0.0231847-0.0000814-0.0103403 0.0125971 0.0000430
           dy -0.0292630-0.0187890-0.0001203 0.0077169-0.0130037-0.0000440
           dz -0.0001019-0.0001129 0.0082970 0.0000232-0.0000410-0.0003210
   8 s     dx -0.0372427-0.0116749-0.0000691-0.1584739-0.0616902-0.0003125
           dy -0.0029542 0.0113123 0.0000312-0.0266302-0.0777013-0.0001989
           dz -0.0000352 0.0000234 0.0030813-0.0001821-0.0002189-0.0299793
   9 c     dx -0.0127399-0.0057363-0.0000277-0.0317522-0.0101772-0.0000555
           dy  0.0052478-0.0055771-0.0000248 0.0234229 0.0034558 0.0000393
           dz  0.0000137-0.0000287 0.0012194 0.0000665 0.0000159-0.0018488
  10 n     dx  0.0068468 0.0031392 0.0000139-0.0141710 0.0677385 0.0002272
           dy -0.0038028-0.0022288-0.0000169 0.0255272-0.0382379-0.0001857
           dz -0.0000114-0.0000131 0.0019693 0.0000769-0.0001594 0.0160373
  11 c     dx  0.0118886 0.0025688 0.0000136-0.0029724 0.0187069 0.0000698
           dy  0.0010986 0.0006531-0.0000027 0.0008374-0.0096715-0.0000339
           dz  0.0000101-0.0000027 0.0016372-0.0000001-0.0000231-0.0005885
  12 s     dx -0.0015024-0.0005326-0.0000027 0.0006660-0.0006336-0.0000019
           dy  0.0019947 0.0005746 0.0000029-0.0022948 0.0026865 0.0000090
           dz  0.0000070 0.0000017-0.0000313-0.0000084 0.0000102 0.0000410
  13 n     dx -0.0057804-0.0029696-0.0000136 0.0016427-0.0105268-0.0000382
           dy -0.0008739 0.0004594 0.0000014-0.0000247-0.0011369-0.0000048
           dz -0.0000067-0.0000001 0.0000524 0.0000012-0.0000099 0.0000436
  14 c     dx  0.0053554 0.0030381 0.0000137-0.0016459 0.0071047 0.0000255
           dy -0.0012344-0.0002071-0.0000018 0.0003751-0.0034768-0.0000134
           dz -0.0000006 0.0000010 0.0001084-0.0000003-0.0000085 0.0000884
  15 c     dx -0.0001016-0.0001408-0.0000003-0.0003970 0.0000071-0.0000003
           dy  0.0008301 0.0003775 0.0000034-0.0001991 0.0008818 0.0000011
           dz  0.0000026 0.0000028-0.0004277-0.0000006 0.0000008 0.0005104
  16 h     dx -0.0002771-0.0001491-0.0000846 0.0000245-0.0000504 0.0002071
           dy -0.0000137 0.0000315 0.0000028-0.0000199-0.0000410 0.0000773
           dz -0.0000273-0.0000157 0.0000219 0.0000399-0.0000485-0.0000036
  17 h     dx -0.0002770-0.0001497 0.0000831 0.0000245-0.0000486-0.0002074
           dy -0.0000139 0.0000315-0.0000027-0.0000195-0.0000405-0.0000777
           dz  0.0000267 0.0000155 0.0000222-0.0000401 0.0000482-0.0000042
  18 o     dx -0.0030560-0.0018234-0.0000083 0.0009765-0.0035382-0.0000128
           dy -0.0007781-0.0006242-0.0000028 0.0001762-0.0003224-0.0000013
           dz -0.0000050-0.0000035 0.0000372 0.0000012-0.0000039 0.0000818
  19 br    dx -0.0306930 0.0026046 0.0000023 0.0017129 0.0213511 0.0000777
           dy -0.0020759-0.1467375-0.0004722-0.0021364-0.0358797-0.0001383
           dz -0.0000141-0.0004704-0.0161111-0.0000086-0.0001254 0.0017057
  20 h     dx -0.0000655 0.0005108 0.0000023-0.0043242-0.0012341-0.0000098
           dy -0.0001409 0.0008203 0.0000051-0.0026417-0.0000142-0.0000147
           dz -0.0000011 0.0000060-0.0006390-0.0000145-0.0000134 0.0033709
  21 h     dx -0.0001504-0.0004009-0.0000032 0.0007258 0.0001814 0.0000012
           dy  0.0014485-0.0042767-0.0000255 0.0013873-0.0004897-0.0000007
           dz  0.0000037-0.0000263 0.0024604 0.0000065-0.0000017-0.0000598

   ATOM              5 c                           6 c 
                  dx        dy        dz        dx        dy        dz
   5 c     dx  0.8116204
           dy  0.0192255 0.6133399
           dz  0.0004999 0.0017380 0.1495712
   6 c     dx -0.2283270-0.0881175-0.0004380 0.7305142
           dy -0.1123515-0.1757333-0.0004986-0.0635334 0.7534173
           dz -0.0005302-0.0004882-0.0612124 0.0001134 0.0023296 0.1339316
   7 c     dx -0.0582842-0.0005383-0.0000407-0.3741151 0.1710788 0.0004678
           dy  0.0225264 0.0286287 0.0000953 0.1279847-0.2175419-0.0005476
           dz  0.0000461 0.0000852 0.0067517 0.0003069-0.0005252-0.0544298
   8 s     dx -0.0098587-0.0368288-0.0001447-0.0047159-0.0024030-0.0000123
           dy -0.0066236-0.0184688-0.0000812-0.0038169-0.0051799-0.0000322
           dz -0.0000332-0.0001017 0.0023222-0.0000186-0.0000305 0.0026518
   9 c     dx -0.1367126 0.0002041-0.0000907 0.0255261 0.0111165 0.0000523
           dy -0.0233929-0.0048606-0.0000722 0.0083646 0.0004530-0.0000200
           dz -0.0001785-0.0000594 0.0108087 0.0000422-0.0000206 0.0077587
  10 n     dx -0.3001821 0.1292469 0.0003192-0.0748266 0.0091625-0.0000104
           dy  0.1068936-0.1565962-0.0002746-0.0122015 0.0170460 0.0000774
           dz  0.0002323-0.0002570-0.0637571-0.0000883 0.0000929-0.0061024
  11 c     dx  0.0352196-0.0172958-0.0000440-0.0165019-0.0037951-0.0000246
           dy -0.0110216-0.0005296-0.0000381 0.0022677 0.0022219 0.0000024
           dz -0.0000284-0.0000398 0.0080391-0.0000019-0.0000013 0.0019543
  12 s     dx -0.0044299 0.0002874-0.0000020 0.0013685 0.0000529 0.0000010
           dy  0.0051804-0.0014855 0.0000015-0.0022705-0.0003629-0.0000030
           dz  0.0000188-0.0000019-0.0008789-0.0000084-0.0000015 0.0001080
  13 n     dx -0.0189190 0.0061486 0.0000109 0.0085857 0.0028143 0.0000160
           dy -0.0001547 0.0013772 0.0000085 0.0005043 0.0000668 0.0000022
           dz -0.0000094 0.0000110-0.0008437 0.0000065 0.0000032-0.0004005
  14 c     dx  0.0134674-0.0054573-0.0000103-0.0068525-0.0018283-0.0000107
           dy -0.0060720 0.0018946 0.0000065 0.0025756 0.0007723 0.0000072
           dz -0.0000124 0.0000071-0.0009913 0.0000053 0.0000045-0.0007882
  15 c     dx -0.0007386 0.0003159-0.0000001 0.0002752 0.0000754 0.0000002
           dy  0.0024508-0.0007909-0.0000043-0.0010210-0.0002192-0.0000018
           dz  0.0000068-0.0000055 0.0008083-0.0000032-0.0000010 0.0000828
  16 h     dx -0.0002594 0.0002162 0.0001799 0.0002169 0.0000570-0.0000339
           dy -0.0000128 0.0000809 0.0000818 0.0000391 0.0000058-0.0000912
           dz -0.0000172 0.0000010-0.0000214 0.0000214 0.0000082-0.0000007
  17 h     dx -0.0002588 0.0002175-0.0001787 0.0002167 0.0000568 0.0000346
           dy -0.0000124 0.0000814-0.0000811 0.0000390 0.0000051 0.0000913
           dz  0.0000167 0.0000001-0.0000223-0.0000208-0.0000080-0.0000002
  18 o     dx -0.0065962 0.0025313 0.0000046 0.0035662 0.0010798 0.0000062
           dy -0.0004518 0.0004883 0.0000005 0.0005696 0.0001939 0.0000007
           dz -0.0000068 0.0000024 0.0002768 0.0000043 0.0000008 0.0001357
  19 br    dx -0.0025161-0.0016885-0.0000102-0.0000930 0.0001689 0.0000007
           dy  0.0040295 0.0047293 0.0000052 0.0006904-0.0013825-0.0000046
           dz  0.0000102-0.0000014 0.0044488 0.0000024-0.0000058-0.0000518
  20 h     dx  0.0053290-0.0278718-0.0001050-0.0570886 0.0017576-0.0000054
           dy  0.0038830-0.0124233-0.0000601 0.0001841-0.3404369-0.0011571
           dz  0.0000184-0.0000785 0.0038693-0.0000159-0.0011557-0.0376196
  21 h     dx -0.0013083 0.0044016 0.0000102-0.0175365-0.0153302-0.0000725
           dy  0.0027853-0.0013465-0.0000374 0.0162422 0.0110381 0.0000383
           dz  0.0000040-0.0000363 0.0087181 0.0000512 0.0000185 0.0037022

   ATOM              7 c                           8 s 
                  dx        dy        dz        dx        dy        dz
   7 c     dx  0.8158049
           dy -0.0493822 0.6091327
           dz  0.0002239 0.0018808 0.1179903
   8 s     dx  0.0028264-0.0055523-0.0000186 0.2728381
           dy  0.0040903-0.0014811-0.0000013 0.0357841 0.2877375
           dz  0.0000173-0.0000058-0.0006166 0.0002808 0.0009776 0.0341104
   9 c     dx -0.0097512 0.0153922 0.0000523-0.0490769 0.0116497 0.0000310
           dy -0.0033306 0.0000971-0.0000013 0.0413954-0.1247390-0.0003296
           dz -0.0000193 0.0000100 0.0000234 0.0001475-0.0003478-0.0312212
  10 n     dx  0.0108212-0.0233840-0.0000859-0.0155514-0.0253815-0.0001127
           dy -0.0037440-0.0003317-0.0000204 0.0012533-0.0679134-0.0003124
           dz -0.0000090-0.0000321 0.0042291-0.0000169-0.0003329 0.0171876
  11 c     dx  0.0048010-0.0112383-0.0000391-0.0080646 0.0140224 0.0000490
           dy -0.0017426 0.0015209 0.0000071 0.0303603-0.0115791-0.0000319
           dz -0.0000038 0.0000016-0.0005611 0.0001086-0.0000394 0.0010347
  12 s     dx -0.0003731 0.0007699 0.0000028-0.0013589-0.0023268-0.0000102
           dy  0.0006114-0.0014154-0.0000050-0.0017006 0.0015199 0.0000012
           dz  0.0000023-0.0000059 0.0000322-0.0000076 0.0000002 0.0012216
  13 n     dx -0.0027981 0.0060922 0.0000214 0.0039884-0.0050772-0.0000168
           dy  0.0001979 0.0006246 0.0000024 0.0000347 0.0001241 0.0000048
           dz -0.0000005 0.0000056 0.0000402 0.0000030 0.0000027-0.0014030
  14 c     dx  0.0020096-0.0048509-0.0000173-0.0027630 0.0042156 0.0000154
           dy -0.0009020 0.0016354 0.0000053 0.0008882-0.0008251 0.0000014
           dz -0.0000019 0.0000025 0.0000495 0.0000016 0.0000033-0.0008902
  15 c     dx -0.0001252 0.0001001 0.0000001 0.0000497-0.0011608-0.0000051
           dy  0.0003679-0.0005879-0.0000024-0.0004344 0.0011044-0.0000001
           dz  0.0000013-0.0000020 0.0000435-0.0000018-0.0000013 0.0011096
  16 h     dx -0.0000608 0.0001684 0.0000179-0.0002574-0.0001400 0.0002131
           dy -0.0000218 0.0000275 0.0000057-0.0000880 0.0000484-0.0000082
           dz  0.0000017 0.0000211-0.0000027 0.0000582-0.0000153-0.0000440
  17 h     dx -0.0000608 0.0001684-0.0000167-0.0002571-0.0001384-0.0002145
           dy -0.0000217 0.0000276-0.0000054-0.0000876 0.0000484 0.0000088
           dz -0.0000020-0.0000206-0.0000029-0.0000592 0.0000158-0.0000441
  18 o     dx -0.0010150 0.0026573 0.0000094 0.0007171-0.0018703-0.0000068
           dy -0.0000813 0.0005598 0.0000021-0.0002664-0.0002980-0.0000015
           dz -0.0000008 0.0000041-0.0000034-0.0000001-0.0000023 0.0000043
  19 br    dx -0.0035360-0.0002156-0.0000034 0.0007094 0.0009031 0.0000057
           dy -0.0065541 0.0027330-0.0000011 0.0002771 0.0023230 0.0000160
           dz -0.0000266 0.0000011 0.0025502 0.0000041 0.0000175-0.0023128
  20 h     dx  0.0050760 0.0283971 0.0001081-0.0003923-0.0005227-0.0000024
           dy -0.0027034-0.0112626-0.0000683 0.0000224-0.0002002-0.0000028
           dz -0.0000066-0.0000530 0.0061596-0.0000011-0.0000035 0.0005710
  21 h     dx -0.2764165-0.1200149-0.0006195-0.0000611-0.0001739-0.0000007
           dy -0.1194073-0.1191379-0.0004036-0.0002330-0.0001509-0.0000005
           dz -0.0006198-0.0004050-0.0352006-0.0000011-0.0000004-0.0000890

   ATOM              9 c                          10 n 
                  dx        dy        dz        dx        dy        dz
   9 c     dx  0.7847507
           dy  0.0635881 0.5016617
           dz  0.0005914 0.0014785 0.1133199
  10 n     dx -0.2117982-0.1865237-0.0007664 0.6663135
           dy -0.1502296-0.2490939-0.0007739 0.0392453 0.4905302
           dz -0.0006386-0.0007968-0.0618322 0.0004962 0.0014538 0.0997783
  11 c     dx -0.2813212 0.0816308 0.0001947-0.0954650-0.0170934-0.0001082
           dy  0.0694634-0.1047672-0.0001463-0.0224571 0.0071839 0.0000588
           dz  0.0001498-0.0001393-0.0557325-0.0001269 0.0000604-0.0118599
  12 s     dx -0.0116565 0.0287657 0.0000976 0.0067699 0.0035138 0.0000178
           dy  0.0181595-0.0142129-0.0000626-0.0079769-0.0013244-0.0000083
           dz  0.0000619-0.0000585 0.0056430-0.0000288-0.0000028-0.0005545
  13 n     dx -0.0716687-0.0381088-0.0001795 0.0240804 0.0092339 0.0000423
           dy -0.0130697 0.0088575 0.0000132 0.0065775 0.0025669-0.0000108
           dz -0.0000876-0.0000021 0.0034869 0.0000332-0.0000089 0.0063113
  14 c     dx  0.0261373 0.0033666 0.0000192-0.0208061-0.0036936-0.0000261
           dy -0.0098167-0.0059204-0.0000569 0.0072438 0.0007020-0.0000066
           dz -0.0000219-0.0000467 0.0081444 0.0000118-0.0000131 0.0036119
  15 c     dx -0.0003320 0.0015825 0.0000030 0.0012672-0.0003221 0.0000004
           dy  0.0038973-0.0032544-0.0000184-0.0038118-0.0002726 0.0000012
           dz  0.0000108-0.0000201 0.0022047-0.0000100 0.0000036-0.0012468
  16 h     dx -0.0006183 0.0006937 0.0006658 0.0004782 0.0003698-0.0003360
           dy -0.0001977 0.0001499 0.0006379 0.0000983 0.0001637-0.0000297
           dz -0.0001135-0.0002634-0.0003672 0.0000456 0.0000277-0.0000017
  17 h     dx -0.0006169 0.0006988-0.0006607 0.0004771 0.0003671 0.0003394
           dy -0.0001972 0.0001527-0.0006343 0.0000980 0.0001635 0.0000312
           dz  0.0001117 0.0002684-0.0003707-0.0000442-0.0000260-0.0000012
  18 o     dx -0.0120281-0.0055886-0.0000258 0.0088967 0.0026052 0.0000149
           dy -0.0022534-0.0001949 0.0000014 0.0011317 0.0011691 0.0000091
           dz -0.0000166-0.0000025-0.0008581 0.0000114 0.0000113-0.0012355
  19 br    dx  0.0009638-0.0007255-0.0000029-0.0005284 0.0027592 0.0000100
           dy  0.0015843 0.0001426 0.0000002-0.0017387-0.0032943-0.0000137
           dz  0.0000051-0.0000015 0.0004553-0.0000057-0.0000082 0.0001449
  20 h     dx -0.0000839-0.0005985-0.0000020 0.0028736 0.0016199 0.0000099
           dy -0.0011363-0.0002232 0.0000001 0.0015697 0.0014869 0.0000176
           dz -0.0000032 0.0000003-0.0003875 0.0000086 0.0000175-0.0028590
  21 h     dx -0.0006315 0.0002565 0.0000011-0.0009147-0.0007638-0.0000043
           dy  0.0005903-0.0001522 0.0000038 0.0004103 0.0006575-0.0000041
           dz  0.0000021 0.0000029-0.0010044 0.0000010-0.0000042 0.0017799

   ATOM             11 c                          12 s 
                  dx        dy        dz        dx        dy        dz
  11 c     dx  0.8102673
           dy  0.0991288 0.4859902
           dz  0.0007262 0.0013113 0.1462667
  12 s     dx -0.0489099 0.0219995 0.0000721 0.2479724
           dy  0.0021913-0.1129769-0.0003009 0.0275322 0.2570547
           dz -0.0000057-0.0002829-0.0323574 0.0002532 0.0008385 0.0364599
  13 n     dx -0.2920038-0.1884647-0.0008206 0.0058318-0.0266047-0.0001056
           dy -0.1753047-0.2631686-0.0008512-0.0007873-0.0615467-0.0002956
           dz -0.0007791-0.0008563-0.0585391-0.0000135-0.0003199 0.0198773
  14 c     dx -0.1096443-0.0466898-0.0002369-0.0268350-0.0065733-0.0000412
           dy -0.0136446 0.0136812 0.0000610-0.0243600-0.0178821-0.0000617
           dz -0.0001173 0.0000350-0.0051750-0.0001044-0.0000482-0.0060565
  15 c     dx -0.0236810 0.0274849 0.0000834-0.1381387-0.0167868-0.0001360
           dy  0.0154307 0.0001783 0.0000151-0.0353077-0.0526005-0.0000813
           dz  0.0000440 0.0000196-0.0005181-0.0002069-0.0000667-0.0377470
  16 h     dx -0.0035385-0.0030288-0.0018200-0.0162341 0.0072315-0.0145352
           dy -0.0015888-0.0042907-0.0004795-0.0087464 0.0044397-0.0070620
           dz  0.0015571-0.0003994 0.0003327 0.0017938-0.0020036 0.0058081
  17 h     dx -0.0035407-0.0030414 0.0017924-0.0162520 0.0071229 0.0145533
           dy -0.0015789-0.0042970 0.0004435-0.0087429 0.0043730 0.0070382
           dz -0.0015753 0.0003619 0.0003393-0.0018912 0.0020036 0.0058929
  18 o     dx  0.0198444 0.0247524 0.0000982 0.0032498-0.0062284-0.0000213
           dy  0.0101497 0.0011074-0.0000086-0.0017294-0.0062883-0.0000335
           dz  0.0000459 0.0000029 0.0053346-0.0000064-0.0000366 0.0026229
  19 br    dx -0.0000490 0.0000395 0.0000002 0.0000502 0.0000278 0.0000002
           dy -0.0028556 0.0004547 0.0000017 0.0000081-0.0003636-0.0000011
           dz -0.0000098 0.0000021-0.0003983-0.0000001-0.0000018 0.0000646
  20 h     dx -0.0001071-0.0000378-0.0000002-0.0000966 0.0000414 0.0000001
           dy  0.0008233-0.0002436-0.0000012-0.0000851 0.0001579 0.0000006
           dz  0.0000025-0.0000016 0.0002011-0.0000004 0.0000006-0.0000017
  21 h     dx  0.0005259-0.0001916-0.0000002-0.0000141 0.0000802 0.0000003
           dy -0.0002520 0.0001602 0.0000023-0.0000082-0.0000137 0.0000002
           dz -0.0000001 0.0000023-0.0004648-0.0000000 0.0000001-0.0000098

   ATOM             13 n                          14 c 
                  dx        dy        dz        dx        dy        dz
  13 n     dx  0.6750015
           dy  0.1185269 0.4711960
           dz  0.0008398 0.0015331 0.0667141
  14 c     dx -0.1959951 0.0703133 0.0001566 0.9492282
           dy  0.1076803-0.1545493-0.0002275 0.2206932 0.5800851
           dz  0.0002885-0.0002529-0.0703808 0.0013469 0.0014427 0.2285009
  15 c     dx -0.0201054 0.0151459 0.0000283-0.0601073 0.0067956 0.0000429
           dy  0.0176010-0.0290614-0.0001611 0.0229354-0.1255023-0.0001260
           dz  0.0000356-0.0001603 0.0187215 0.0001028-0.0001361-0.0863911
  16 h     dx  0.0017623 0.0001947-0.0002971-0.0010979 0.0016428 0.0019479
           dy  0.0032189-0.0037669-0.0036709 0.0138773-0.0082021 0.0280343
           dz  0.0006232-0.0000445-0.0008180 0.0006932-0.0027329 0.0026039
  17 h     dx  0.0017626 0.0001922 0.0003022-0.0010942 0.0016524-0.0019417
           dy  0.0032188-0.0037921 0.0036536 0.0139242-0.0080183-0.0280895
           dz -0.0005961 0.0000231-0.0007914-0.0005975 0.0026589 0.0024156
  18 o     dx -0.1126185-0.0214887-0.0001755-0.5714467-0.2928902-0.0014432
           dy -0.0048325 0.0314612 0.0000453-0.2881509-0.2740533-0.0009424
           dz -0.0001142 0.0000310 0.0179202-0.0014253-0.0009453-0.0749782
  19 br    dx -0.0000760 0.0000649 0.0000001 0.0000554 0.0000318-0.0000001
           dy  0.0024696 0.0001638 0.0000015-0.0020700 0.0002605-0.0000006
           dz  0.0000088-0.0000011 0.0001327-0.0000076 0.0000018-0.0000224
  20 h     dx  0.0000834 0.0000870 0.0000004-0.0000591-0.0000372-0.0000002
           dy -0.0005927 0.0000524 0.0000002 0.0004837-0.0001658-0.0000003
           dz -0.0000019 0.0000006-0.0000744 0.0000016-0.0000007 0.0000115
  21 h     dx -0.0004476 0.0000220-0.0000003 0.0003522-0.0000819-0.0000002
           dy  0.0002088 0.0000115-0.0000003-0.0001280 0.0000426-0.0000005
           dz  0.0000003-0.0000003 0.0001117-0.0000002-0.0000005 0.0001380

   ATOM             15 c                          16 h 
                  dx        dy        dz        dx        dy        dz
  15 c     dx  0.4506783
           dy -0.0845249 0.3948821
           dz -0.0003884-0.0006218 0.5487002
  16 h     dx -0.0990402 0.0468787-0.1091713 0.1104534
           dy  0.0465425-0.0742374 0.0810464-0.0478753 0.0789299
           dz -0.1051109 0.0794451-0.2313362 0.1116015-0.0843017 0.2414214
  17 h     dx -0.0993731 0.0462036 0.1097133 0.0081727-0.0051512-0.0116339
           dy  0.0459006-0.0730806-0.0798258-0.0052515 0.0047086 0.0100545
           dz  0.1056521-0.0782246-0.2321608 0.0116375-0.0098948-0.0183636
  18 o     dx -0.0100436-0.0315489-0.0001359 0.0003491-0.0000590 0.0004729
           dy -0.0409714-0.0376639-0.0002329-0.0011058 0.0019705 0.0002457
           dz -0.0001693-0.0002247 0.0177979-0.0001594-0.0043569 0.0007665
  19 br    dx  0.0000103 0.0000003 0.0000001-0.0000094-0.0000028 0.0000005
           dy -0.0000127-0.0001346-0.0000004 0.0000928-0.0000060 0.0000144
           dz  0.0000004 0.0000001 0.0000144-0.0000016-0.0000197-0.0000010
  20 h     dx -0.0000433 0.0000498 0.0000001 0.0000109 0.0000038 0.0000023
           dy -0.0000398 0.0000985 0.0000003-0.0000177 0.0000012-0.0000012
           dz -0.0000002 0.0000004-0.0000063-0.0000008 0.0000081 0.0000009
  21 h     dx -0.0000034 0.0000471 0.0000001-0.0000191-0.0000016-0.0000024
           dy  0.0000022-0.0000109 0.0000001 0.0000044 0.0000010 0.0000004
           dz  0.0000000 0.0000001-0.0000282-0.0000028 0.0000084 0.0000002

   ATOM             17 h                          18 o 
                  dx        dy        dz        dx        dy        dz
  17 h     dx  0.1108006
           dy -0.0471915 0.0777141
           dz -0.1121497 0.0830393 0.2422909
  18 o     dx  0.0003497-0.0000620-0.0004743 0.6800648
           dy -0.0011066 0.0019410-0.0002390 0.3299932 0.2798888
           dz  0.0001506 0.0043651 0.0007960 0.0016927 0.0011549 0.0313113
  19 br    dx -0.0000093-0.0000028-0.0000006-0.0000610-0.0000373-0.0000003
           dy  0.0000928-0.0000061-0.0000143 0.0012740 0.0004616 0.0000024
           dz  0.0000022 0.0000196-0.0000008 0.0000046 0.0000016-0.0000205
  20 h     dx  0.0000109 0.0000039-0.0000022 0.0000709 0.0000583 0.0000003
           dy -0.0000177 0.0000013 0.0000012-0.0002602-0.0000363-0.0000003
           dz  0.0000007-0.0000081 0.0000008-0.0000009-0.0000001 0.0000050
  21 h     dx -0.0000191-0.0000016 0.0000023-0.0002180-0.0000573-0.0000005
           dy  0.0000044 0.0000010-0.0000004 0.0000758 0.0000196 0.0000002
           dz  0.0000028-0.0000084 0.0000001 0.0000001 0.0000002-0.0000369

   ATOM             19 br                         20 h 
                  dx        dy        dz        dx        dy        dz
  19 br    dx  0.0300346
           dy -0.0009280 0.2103299
           dz  0.0000072 0.0007296 0.0085872
  20 h     dx  0.0001163 0.0000164 0.0000005 0.0521581
           dy  0.0000518-0.0002111 0.0000013-0.0021731 0.3600848
           dz  0.0000004 0.0000011-0.0005401 0.0000071 0.0012784 0.0252627
  21 h     dx  0.0001915 0.0001638 0.0000007 0.0010768 0.0003024 0.0000059
           dy -0.0009932-0.0016375-0.0000057-0.0007002 0.0010600 0.0000278
           dz -0.0000036-0.0000049-0.0002984 0.0000016 0.0000277-0.0061768

   ATOM             21 h 
                  dx        dy        dz
  21 h     dx  0.2930502
           dy  0.1276559 0.1202991
           dz  0.0006664 0.0004537 0.0243064
 

   *** projected hessian written onto $hessian (projected), file=<hessian> ***

 dipole moment in principle axis system (a.u.) :
     6.7948325895    -3.3826555374     0.0108071311
 norm :   7.59027174729345     

 rotational constants b for rotations around axis of inertia
 and optical intensities for (1 <-- 0) transition

   b   :     0.0237621077     0.0049827875     0.0041222803   (cm**(-1))
   b   :         712.3701         149.3802         123.5829     (MHz)
  int. :    46.1697499188    11.4423584849     0.0001167941     (a.u.)

   x   :     0.9012428583     0.4333139447    -0.0005795007
   y   :    -0.4333130037     0.9012359776    -0.0036815205
   z   :    -0.0010729873     0.0035690493     0.9999930553

   ***  normal modes written onto $vibrational normal modes, file=<vib_normal_modes>  ***

 keyword $vibrational reduced masses missing in file <control>


   ***  vibrational spectroscopic data written onto$vibrational spectrum   
        file=<vibspectrum>  ***

          ---------------------------------------------------
          NORMAL MODES and VIBRATIONAL FREQUENCIES (cm**(-1))
          ---------------------------------------------------

 imaginary wave numbers indicate a negative curvature of the energy surface.
 zero frequency modes have no physical meaning except being generators of
 translations and rotations. each vibrational normal mode - given in terms of
 cartesian displacement vectors of all atoms - has been normalized to unity.
 to obtain mass-weigthed normal coordinates in a.u. divide the tabulated
 modes by sqrt(reduced mass * 1822.88853).
 band intensities or cross sections refer to independent non-degenerate normal
 modes, that is, the intensities of degenerate modes have yet to be added.
 dDIP/dQ is the normal mode derivative of the dipole moment.


       mode               1        2        3        4        5        6

     frequency           0.00     0.00     0.00     0.00     0.00     0.00

     symmetry                                                             

        IR                -        -        -        -        -        - 
|dDIP/dQ|   (a.u.)     0.0000   0.0000   0.0000   0.0000   0.0000   0.0000
intensity (km/mol)       0.00     0.00     0.00     0.00     0.00     0.00
intensity (  %   )       0.00     0.00     0.00     0.00     0.00     0.00
 
       RAMAN              -        -        -        -        -        - 
 
  1   o           x   0.22672 -0.00415  0.04942  0.01134 -0.03255 -0.04259
                  y   0.08627  0.00955 -0.11932  0.14883  0.18464 -0.22603
                  z  -0.01131  0.26297  0.01877  0.22333 -0.08917  0.05153
  2   c           x   0.20897 -0.00566  0.06688 -0.00031 -0.05544 -0.04007
                  y   0.05369  0.00683 -0.08720  0.12772  0.14265 -0.22131
                  z  -0.00413  0.24874 -0.00661  0.14348 -0.08626  0.02840
  3   c           x   0.22904 -0.00390  0.04716  0.01289 -0.02954 -0.04292
                  y   0.01470  0.00398 -0.04865  0.10198  0.09255 -0.21577
                  z  -0.00112  0.12637 -0.05869  0.16436 -0.13225  0.02710
  4   c           x   0.20782 -0.00569  0.06805 -0.00103 -0.05690 -0.03989
                  y  -0.02084  0.00102 -0.01361  0.07895  0.04674 -0.21063
                  z   0.00697  0.11559 -0.08540  0.07202 -0.12685  0.00069
  5   c           x   0.16448 -0.00941  0.11068 -0.02949 -0.11281 -0.03372
                  y  -0.02146  0.00057 -0.01311  0.07901  0.04578 -0.21044
                  z   0.01291  0.22500 -0.06329 -0.05075 -0.07528 -0.02722
  6   c           x   0.14365 -0.01124  0.13114 -0.04320 -0.13970 -0.03076
                  y   0.01596  0.00326 -0.05011  0.10375  0.09384 -0.21575
                  z   0.01023  0.34647 -0.01248 -0.07525 -0.02925 -0.02699
  7   c           x   0.16480 -0.00946  0.11032 -0.02933 -0.11242 -0.03378
                  y   0.05113  0.00620 -0.08478  0.12654  0.13918 -0.22084
                  z   0.00221  0.35673  0.01387  0.01659 -0.03479 -0.00075
  8   s           x   0.22537 -0.00412  0.05082  0.01053 -0.03424 -0.04238
                  y  -0.07008 -0.00262  0.03505  0.04650 -0.01654 -0.20362
                  z   0.01182 -0.01909 -0.14708  0.07644 -0.17560 -0.00592
  9   c           x   0.17481 -0.00845  0.10056 -0.02267 -0.09946 -0.03518
                  y  -0.08681 -0.00440  0.05144  0.03610 -0.03826 -0.20111
                  z   0.02111  0.07933 -0.13834 -0.08144 -0.12445 -0.04427
 10   n           x   0.14764 -0.01081  0.12726 -0.04053 -0.13451 -0.03131
                  y  -0.05795 -0.00241  0.02288  0.05529 -0.00123 -0.20518
                  z   0.02054  0.20132 -0.09332 -0.13162 -0.07566 -0.05119
 11   c           x   0.16523 -0.00924  0.10999 -0.02894 -0.11179 -0.03381
                  y  -0.12836 -0.00772  0.09245  0.00901 -0.09176 -0.19513
                  z   0.02850  0.02787 -0.17757 -0.14645 -0.13639 -0.06543
 12   s           x   0.11324 -0.01368  0.16114 -0.06308 -0.17885 -0.02640
                  y  -0.14163 -0.00924  0.10542  0.00088 -0.10903 -0.19311
                  z   0.03747  0.13625 -0.16439 -0.30519 -0.08158 -0.10344
 13   n           x   0.19158 -0.00694  0.08409 -0.01162 -0.07779 -0.03755
                  y  -0.15741 -0.00973  0.12119 -0.01029 -0.12903 -0.19103
                  z   0.02921 -0.09237 -0.22236 -0.09875 -0.18431 -0.05911
 14   c           x   0.17447 -0.00836  0.10095 -0.02283 -0.09984 -0.03511
                  y  -0.19501 -0.01279  0.15828 -0.03474 -0.17746 -0.18561
                  z   0.03704 -0.11738 -0.25343 -0.18140 -0.18498 -0.08365
 15   c           x   0.12790 -0.01235  0.14676 -0.05341 -0.15991 -0.02848
                  y  -0.19376 -0.01312  0.15694 -0.03343 -0.17603 -0.18568
                  z   0.04314  0.00367 -0.22763 -0.31156 -0.12850 -0.11294
 16   h           x   0.11251  0.03572  0.18663 -0.03634 -0.15955 -0.01712
                  y  -0.20596  0.05399  0.18663 -0.11938 -0.16429 -0.20054
                  z   0.04701  0.00395 -0.23848 -0.35831 -0.12370 -0.12598
 17   h           x   0.12059 -0.06232  0.12923 -0.08537 -0.18954 -0.03659
                  y  -0.21325 -0.08289  0.15849  0.03198 -0.22863 -0.16623
                  z   0.04699  0.00338 -0.23863 -0.35780 -0.12396 -0.12587
 18   o           x   0.19228 -0.00679  0.08345 -0.01110 -0.07684 -0.03763
                  y  -0.22675 -0.01507  0.18967 -0.05573 -0.21822 -0.18111
                  z   0.03929 -0.22079 -0.29660 -0.16021 -0.22420 -0.08375
 19   br          x   0.28576  0.00096 -0.00864  0.05014  0.04362 -0.05099
                  y   0.01435  0.00447 -0.04818  0.10117  0.09232 -0.21585
                  z  -0.00873 -0.01893 -0.08886  0.32399 -0.20039  0.06322
 20   h           x   0.11074 -0.01408  0.16351 -0.06482 -0.18215 -0.02608
                  y   0.01547  0.00291 -0.04971  0.10379  0.09309 -0.21560
                  z   0.01474  0.42952  0.00429 -0.16848  0.00990 -0.04819
 21   h           x   0.14946 -0.01082  0.12539 -0.03942 -0.13222 -0.03161
                  y   0.08027  0.00830 -0.11359  0.14579  0.17660 -0.22498
                  z   0.00000  0.44906  0.05297  0.00000  0.00000  0.00000

reduced mass(g/mol)    18.380    8.575   12.142   18.769   14.971   15.801


       mode               7        8        9       10       11       12

     frequency          48.04    48.48    59.99    98.88   121.90   125.31

     symmetry            a        a        a        a        a        a   

        IR               YES      YES      YES      YES      YES      YES
|dDIP/dQ|   (a.u.)     0.0015   0.0004   0.0012   0.0007   0.0021   0.0007
intensity (km/mol)       3.99     0.36     2.55     0.94     7.60     0.91
intensity (  %   )       0.22     0.02     0.14     0.05     0.43     0.05
 
       RAMAN             YES      YES      YES      YES      YES      YES
 
  1   o           x  -0.00014  0.00005 -0.01001 -0.00017 -0.00001 -0.13809
                  y  -0.00137  0.00070  0.13582 -0.00190 -0.00021 -0.21887
                  z   0.37507 -0.18223  0.00042  0.49529  0.05550 -0.00068
  2   c           x  -0.00010  0.00001 -0.04550 -0.00005  0.00001 -0.09433
                  y  -0.00082  0.00017  0.07026 -0.00056  0.00002 -0.13809
                  z   0.22398 -0.04286  0.00021  0.15320 -0.00315 -0.00053
  3   c           x  -0.00001 -0.00003 -0.00401 -0.00000  0.00002 -0.11954
                  y  -0.00007 -0.00016 -0.02182 -0.00008  0.00012 -0.10682
                  z   0.02007  0.04455 -0.00008  0.02817 -0.03183 -0.00051
  4   c           x   0.00003 -0.00010 -0.05573 -0.00001  0.00003 -0.11561
                  y   0.00022 -0.00061 -0.10205 -0.00006  0.00015 -0.06155
                  z  -0.06179  0.16619 -0.00039  0.01998 -0.04048 -0.00036
  5   c           x   0.00001 -0.00010 -0.12491  0.00007  0.00001  0.00754
                  y   0.00013 -0.00067 -0.10241  0.00060  0.00008 -0.03408
                  z  -0.03670  0.18165 -0.00043 -0.15939 -0.02066 -0.00017
  6   c           x  -0.00009 -0.00006 -0.17381  0.00017  0.00002  0.04511
                  y  -0.00042 -0.00049 -0.01924  0.00132  0.00016 -0.10300
                  z   0.11228  0.13003 -0.00015 -0.34381 -0.03999 -0.00044
  7   c           x  -0.00015 -0.00002 -0.12857  0.00009  0.00003  0.01236
                  y  -0.00089 -0.00014  0.06112  0.00076  0.00017 -0.14750
                  z   0.24320  0.03599  0.00016 -0.18891 -0.04286 -0.00060
  8   s           x   0.00010 -0.00016 -0.04656 -0.00013  0.00004 -0.21708
                  y   0.00060 -0.00096 -0.16487 -0.00096  0.00017  0.16960
                  z  -0.16650  0.26019 -0.00062  0.24614 -0.04814  0.00045
  9   c           x   0.00009 -0.00012 -0.11903 -0.00006 -0.00001 -0.04326
                  y   0.00058 -0.00080 -0.18399 -0.00027 -0.00009  0.25258
                  z  -0.16068  0.21712 -0.00075  0.06201  0.02130  0.00096
 10   n           x   0.00006 -0.00011 -0.14457  0.00004 -0.00002  0.07492
                  y   0.00040 -0.00070 -0.15837  0.00048 -0.00009  0.11978
                  z  -0.11235  0.18866 -0.00066 -0.13725  0.02308  0.00051
 11   c           x   0.00006 -0.00007 -0.10242 -0.00006 -0.00002 -0.04865
                  y   0.00036 -0.00037 -0.09562 -0.00031 -0.00017  0.27598
                  z  -0.09959  0.10556 -0.00043  0.07515  0.04067  0.00107
 12   s           x   0.00018  0.00014  0.13978  0.00000 -0.00008 -0.29411
                  y   0.00098  0.00093 -0.02575 -0.00020 -0.00054  0.23539
                  z  -0.26410 -0.24465 -0.00001  0.04723  0.13953  0.00076
 13   n           x  -0.00007 -0.00012 -0.22099 -0.00009  0.00000  0.03608
                  y  -0.00037 -0.00066  0.03970 -0.00033  0.00005  0.17834
                  z   0.10545  0.18583 -0.00001  0.08541 -0.01679  0.00076
 14   c           x  -0.00018  0.00002 -0.14330  0.00001  0.00001 -0.03337
                  y  -0.00089  0.00004  0.22668  0.00010  0.00008  0.00381
                  z   0.24483 -0.01367  0.00074 -0.02230 -0.02186 -0.00001
 15   c           x  -0.00001  0.00021  0.07576  0.00000  0.00024 -0.23719
                  y  -0.00002  0.00115  0.21902 -0.00010  0.00107  0.01048
                  z   0.00508 -0.31838  0.00084  0.03363 -0.29562 -0.00023
 16   h           x  -0.09882  0.09594  0.12514 -0.00616  0.29942 -0.28018
                  y  -0.13676 -0.17824  0.28974  0.03388 -0.18014 -0.05367
                  z   0.00452 -0.45173  0.00168  0.05266 -0.55386 -0.00205
 17   h           x   0.09878 -0.09533  0.12515  0.00615 -0.29852 -0.28044
                  y   0.13670  0.18147  0.28979 -0.03420  0.18418 -0.05357
                  z   0.00566 -0.45057  0.00058  0.05243 -0.55300  0.00087
 18   o           x  -0.00039  0.00000 -0.23001  0.00010 -0.00011  0.04811
                  y  -0.00197 -0.00014  0.38212  0.00065 -0.00044 -0.14319
                  z   0.53814  0.02976  0.00126 -0.16379  0.12419 -0.00052
 19   br          x   0.00005  0.00006  0.20029  0.00005 -0.00002  0.30341
                  y   0.00033  0.00039 -0.02279  0.00044 -0.00001 -0.12986
                  z  -0.08919 -0.10781  0.00005 -0.11419  0.00674 -0.00032
 20   h           x  -0.00013 -0.00007 -0.25462  0.00028  0.00002  0.08551
                  y  -0.00050 -0.00058 -0.02063  0.00220  0.00018 -0.10258
                  z   0.13465  0.15437 -0.00019 -0.57197 -0.04565 -0.00044
 21   h           x  -0.00025  0.00002 -0.16019  0.00013  0.00003  0.03907
                  y  -0.00139  0.00005  0.12052  0.00112  0.00020 -0.19965
                  z   0.37719 -0.01523  0.00035 -0.27516 -0.05061 -0.00077

reduced mass(g/mol)    13.878    9.977   13.471   10.774    3.038   21.794


       mode              13       14       15       16       17       18

     frequency         148.22   199.37   240.21   242.35   250.92   300.46

     symmetry            a        a        a        a        a        a   

        IR               YES      YES      YES      YES      YES      YES
|dDIP/dQ|   (a.u.)     0.0004   0.0011   0.0012   0.0006   0.0011   0.0006
intensity (km/mol)       0.23     2.10     2.51     0.59     1.97     0.61
intensity (  %   )       0.01     0.12     0.14     0.03     0.11     0.03
 
       RAMAN             YES      YES      YES      YES      YES      YES
 
  1   o           x   0.00002 -0.00003 -0.37970  0.00017 -0.13914 -0.15453
                  y   0.00064 -0.00063 -0.53164 -0.00125  0.29474 -0.06522
                  z  -0.17094  0.12699 -0.00229  0.13265  0.00149 -0.00034
  2   c           x  -0.00005  0.00007 -0.17825  0.00045 -0.21137 -0.12681
                  y  -0.00024  0.00005 -0.15469  0.00026  0.14489 -0.02309
                  z   0.06221 -0.02576 -0.00050 -0.16311 -0.00001 -0.00015
  3   c           x  -0.00012  0.00001 -0.21588  0.00046 -0.14330 -0.10283
                  y  -0.00084 -0.00019  0.06749  0.00199 -0.02760  0.01445
                  z   0.22397  0.05529  0.00068 -0.51973 -0.00154 -0.00009
  4   c           x  -0.00012 -0.00002 -0.18033  0.00038 -0.15058  0.02894
                  y  -0.00087 -0.00041  0.02628  0.00137 -0.04522  0.26879
                  z   0.23993  0.11844  0.00040 -0.35708 -0.00114  0.00083
  5   c           x   0.00002 -0.00011 -0.05103  0.00024 -0.10202  0.00116
                  y  -0.00007 -0.00087  0.00416  0.00041 -0.02426  0.32300
                  z   0.02380  0.24009  0.00014 -0.11457 -0.00032  0.00098
  6   c           x   0.00003  0.00011  0.02410  0.00032 -0.21357  0.07637
                  y  -0.00012  0.00027 -0.11472 -0.00078  0.09958  0.22135
                  z   0.03528 -0.07227 -0.00044  0.12391  0.00050  0.00079
  7   c           x  -0.00004  0.00025  0.00989  0.00037 -0.22088 -0.03350
                  y  -0.00048  0.00126 -0.17496 -0.00069  0.14399  0.01959
                  z   0.12477 -0.34002 -0.00067  0.07559  0.00038  0.00022
  8   s           x  -0.00016  0.00011 -0.15147  0.00009 -0.18630  0.10249
                  y  -0.00110  0.00034 -0.01101 -0.00067  0.02249  0.35422
                  z   0.30405 -0.08585 -0.00029  0.16325  0.00037  0.00141
  9   c           x   0.00019 -0.00007 -0.00162 -0.00011  0.00767  0.01011
                  y   0.00100 -0.00049 -0.02496 -0.00068  0.02934  0.16026
                  z  -0.25173  0.13210 -0.00034  0.16631  0.00059  0.00078
 10   n           x   0.00023 -0.00018 -0.04356 -0.00003 -0.03582 -0.05396
                  y   0.00104 -0.00119  0.02011 -0.00055  0.03022  0.27898
                  z  -0.27170  0.32486 -0.00014  0.13132  0.00059  0.00101
 11   c           x   0.00023  0.00000  0.03935 -0.00019  0.11989 -0.07173
                  y   0.00140  0.00023 -0.08579 -0.00006  0.07116 -0.18587
                  z  -0.36830 -0.07301 -0.00030 -0.02396  0.00020 -0.00064
 12   s           x  -0.00015 -0.00001  0.20327 -0.00028  0.21579  0.10901
                  y  -0.00043  0.00019 -0.12815 -0.00001  0.04189 -0.28458
                  z   0.12000 -0.06182 -0.00032 -0.03241  0.00018 -0.00103
 13   n           x   0.00039  0.00009  0.06263 -0.00021  0.21703 -0.10660
                  y   0.00214  0.00093 -0.11082  0.00080 -0.00812 -0.19427
                  z  -0.58147 -0.25988 -0.00015 -0.22689 -0.00072 -0.00080
 14   c           x   0.00002 -0.00006  0.09428 -0.00035  0.23709 -0.08409
                  y   0.00031  0.00021 -0.06079  0.00033 -0.06481 -0.04382
                  z  -0.08463 -0.05360 -0.00010 -0.06490 -0.00032 -0.00023
 15   c           x  -0.00007 -0.00011  0.17585 -0.00033  0.20866  0.08416
                  y  -0.00002 -0.00023 -0.05508 -0.00008 -0.03997 -0.06669
                  z   0.00642  0.06579 -0.00013  0.03633  0.00011 -0.00018
 16   h           x   0.03427 -0.10175  0.19260 -0.06754  0.19886  0.11946
                  y   0.04997  0.08443 -0.02779  0.07714 -0.04931 -0.01342
                  z   0.00367  0.16248  0.00191  0.10942  0.00230  0.00212
 17   h           x  -0.03439  0.10139  0.19246  0.06682  0.19930  0.11955
                  y  -0.04998 -0.08556 -0.02760 -0.07776 -0.04982 -0.01342
                  z   0.00326  0.16202 -0.00210  0.10897 -0.00169 -0.00198
 18   o           x  -0.00027 -0.00021  0.07296 -0.00057  0.29338 -0.20669
                  y  -0.00111 -0.00040 -0.02047 -0.00005 -0.15778  0.16815
                  z   0.30322  0.12425 -0.00012  0.08468 -0.00007  0.00048
 19   br          x   0.00005  0.00001  0.07330  0.00001 -0.00218  0.04154
                  y   0.00015  0.00003  0.27316  0.00023 -0.10170 -0.16786
                  z  -0.04945 -0.00292  0.00099  0.03404 -0.00029 -0.00058
 20   h           x   0.00010  0.00023  0.11265  0.00039 -0.34023  0.26597
                  y   0.00026  0.00072 -0.11305 -0.00199  0.09608  0.22515
                  z  -0.06383 -0.18833 -0.00065  0.44223  0.00114  0.00101
 21   h           x  -0.00001  0.00047  0.02719  0.00015 -0.20838  0.03875
                  y  -0.00042  0.00249 -0.20744 -0.00182  0.11535 -0.11511
                  z   0.10472 -0.65935 -0.00104  0.38080  0.00085  0.00001

reduced mass(g/mol)    15.378    6.568   19.230    8.640   12.428   17.468


       mode              19       20       21       22       23       24

     frequency         346.47   384.69   461.98   505.03   506.95   535.27

     symmetry            a        a        a        a        a        a   

        IR               YES      YES      YES      YES      YES      YES
|dDIP/dQ|   (a.u.)     0.0001   0.0021   0.0052   0.0002   0.0038   0.0005
intensity (km/mol)       0.02     7.82    47.17     0.08    25.98     0.49
intensity (  %   )       0.00     0.44     2.66     0.00     1.46     0.03
 
       RAMAN             YES      YES      YES      YES      YES      YES
 
  1   o           x  -0.00002  0.41365  0.21780 -0.00026  0.18655  0.00016
                  y   0.00055  0.21622 -0.06033 -0.00032  0.08506  0.00007
                  z  -0.13947  0.00093 -0.00017  0.02839  0.00051 -0.06302
  2   c           x  -0.00010  0.26212  0.15154  0.00012 -0.01409  0.00015
                  y  -0.00065 -0.02563 -0.13199  0.00054 -0.23611 -0.00064
                  z   0.17845  0.00012 -0.00042 -0.03820 -0.00109  0.16451
  3   c           x  -0.00011  0.10989  0.06438 -0.00008 -0.00908 -0.00000
                  y  -0.00078 -0.02217  0.02136 -0.00095 -0.10561 -0.00057
                  z   0.20810  0.00015  0.00017  0.31322  0.00059  0.18474
  4   c           x   0.00006 -0.08003  0.03371  0.00010  0.01979  0.00026
                  y   0.00035 -0.19115  0.09319  0.00064  0.02392  0.00166
                  z  -0.10777 -0.00056  0.00045 -0.18527 -0.00026 -0.42122
  5   c           x   0.00020  0.05558 -0.15995  0.00040 -0.20266 -0.00016
                  y   0.00094 -0.20994  0.08412  0.00074 -0.00666  0.00020
                  z  -0.26743 -0.00069  0.00021 -0.20065 -0.00078 -0.02656
  6   c           x   0.00018  0.08708 -0.07324  0.00011 -0.21815 -0.00009
                  y   0.00110 -0.25253 -0.08588 -0.00075 -0.18622  0.00010
                  z  -0.29981 -0.00101 -0.00041  0.26889 -0.00002 -0.03734
  7   c           x  -0.00011  0.16602 -0.07233  0.00060 -0.31495 -0.00000
                  y  -0.00100 -0.09140 -0.14599  0.00141 -0.31840  0.00006
                  z   0.26613 -0.00022 -0.00053 -0.22543 -0.00206 -0.01072
  8   s           x   0.00001 -0.44965  0.03184 -0.00025  0.14347 -0.00010
                  y   0.00011  0.21795  0.09940 -0.00016  0.10139 -0.00034
                  z  -0.05000  0.00051  0.00038  0.00765  0.00045  0.08810
  9   c           x  -0.00018  0.00395 -0.15319 -0.00002 -0.04688  0.00005
                  y  -0.00133  0.18618 -0.03770 -0.00043 -0.00382  0.00099
                  z   0.35060  0.00068 -0.00021  0.11851  0.00045 -0.27269
 10   n           x  -0.00007  0.14814 -0.22768  0.00026 -0.15758 -0.00044
                  y  -0.00057  0.04581  0.03655  0.00025  0.06769 -0.00120
                  z   0.13903  0.00020 -0.00001 -0.09396 -0.00024  0.35006
 11   c           x  -0.00005 -0.03912 -0.15357 -0.00008  0.00967  0.00012
                  y  -0.00046 -0.03369  0.02531 -0.00032 -0.01069  0.00110
                  z   0.13108 -0.00013 -0.00000  0.09226  0.00037 -0.30161
 12   s           x   0.00001  0.05804  0.24113  0.00014 -0.08345 -0.00003
                  y   0.00018 -0.19835  0.07752 -0.00005  0.06304  0.00005
                  z  -0.03553 -0.00071  0.00046 -0.00710  0.00014  0.01575
 13   n           x   0.00013 -0.02028 -0.20232 -0.00017  0.13180  0.00004
                  y   0.00062 -0.11049  0.13438  0.00031 -0.12700 -0.00043
                  z  -0.16237 -0.00037  0.00033 -0.03750 -0.00057  0.07862
 14   c           x   0.00007 -0.02529 -0.23055 -0.00024  0.18702 -0.00001
                  y   0.00029 -0.04856  0.00318  0.00021 -0.03327 -0.00080
                  z  -0.07959 -0.00018 -0.00017 -0.04836 -0.00020  0.19853
 15   c           x  -0.00002  0.05698 -0.01660 -0.00010  0.08197  0.00009
                  y  -0.00005 -0.07469  0.16634  0.00017 -0.11960 -0.00027
                  z   0.01532 -0.00023  0.00059 -0.00511 -0.00040  0.03426
 16   h           x  -0.05934  0.07859  0.09584 -0.02780 -0.00979  0.14626
                  y   0.08764 -0.04462  0.33652  0.06824 -0.24731 -0.31228
                  z   0.08891  0.00094  0.00397  0.04109  0.00195 -0.18849
 17   h           x   0.05917  0.07860  0.09582  0.02778 -0.00954 -0.14592
                  y  -0.08828 -0.04457  0.33655 -0.06786 -0.24789  0.31312
                  z   0.08836 -0.00117 -0.00139  0.04064 -0.00341 -0.18646
 18   o           x  -0.00003 -0.12148  0.02132 -0.00013  0.06823  0.00010
                  y  -0.00027  0.11590 -0.46998 -0.00040  0.21785  0.00046
                  z   0.06592  0.00032 -0.00169  0.02287  0.00095 -0.08627
 19   br          x   0.00000 -0.01693  0.00737 -0.00001  0.01049  0.00001
                  y   0.00006  0.05585 -0.00065 -0.00004  0.04548 -0.00001
                  z  -0.00721  0.00019  0.00000 -0.00980  0.00014 -0.00344
 20   h           x   0.00023  0.00398  0.11754 -0.00056 -0.01530  0.00006
                  y   0.00189 -0.25438 -0.08208 -0.00274 -0.18790  0.00057
                  z  -0.50758 -0.00133 -0.00030  0.78940  0.00176 -0.15966
 21   h           x  -0.00022  0.10775 -0.13071  0.00056 -0.34586  0.00003
                  y  -0.00151  0.01841 -0.02852  0.00121 -0.26334  0.00132
                  z   0.40641 -0.00002 -0.00003 -0.16945 -0.00155 -0.26653

reduced mass(g/mol)     7.203   18.137   11.712    4.717    9.677    8.018


       mode              25       26       27       28       29       30

     frequency         539.20   555.83   579.80   586.39   654.62   682.16

     symmetry            a        a        a        a        a        a   

        IR               YES      YES      YES      YES      YES      YES
|dDIP/dQ|   (a.u.)     0.0011   0.0065   0.0024   0.0014   0.0003   0.0010
intensity (km/mol)       2.30    74.16     9.91     3.43     0.17     1.67
intensity (  %   )       0.13     4.18     0.56     0.19     0.01     0.09
 
       RAMAN             YES      YES      YES      YES      YES      YES
 
  1   o           x   0.11540  0.10790 -0.08296 -0.00000 -0.00001  0.00009
                  y  -0.26155 -0.16089 -0.19237 -0.00005 -0.00025 -0.00029
                  z  -0.00094 -0.00058 -0.00078  0.01610  0.06332  0.04417
  2   c           x   0.27645  0.17499  0.08948  0.00001  0.00009  0.00018
                  y   0.07576  0.00746  0.11782  0.00017  0.00082  0.00059
                  z   0.00030  0.00008  0.00050 -0.04598 -0.21364 -0.15993
  3   c           x   0.09937  0.05968  0.14494 -0.00001 -0.00003  0.00000
                  y   0.20515  0.12294 -0.00440  0.00004 -0.00023 -0.00019
                  z   0.00057  0.00048 -0.00006 -0.00840  0.06337  0.07415
  4   c           x  -0.01105 -0.01093  0.07913 -0.00005 -0.00011 -0.00011
                  y   0.12579  0.09363 -0.16068 -0.00028 -0.00069 -0.00033
                  z   0.00088  0.00043 -0.00050  0.07759  0.18240  0.07759
  5   c           x  -0.12852 -0.12879 -0.03455  0.00003  0.00015 -0.00003
                  y   0.16472  0.10801 -0.23846  0.00014  0.00068  0.00040
                  z   0.00064  0.00033 -0.00087 -0.03422 -0.18661 -0.10317
  6   c           x  -0.02384 -0.09357 -0.23845  0.00001  0.00004 -0.00026
                  y   0.08819  0.02512 -0.06548 -0.00002  0.00033  0.00027
                  z   0.00025  0.00001 -0.00043  0.00892 -0.07759 -0.08756
  7   c           x   0.11877 -0.01790 -0.06597  0.00001 -0.00002 -0.00030
                  y   0.17491  0.05505  0.20683  0.00002  0.00004 -0.00003
                  z   0.00087  0.00026  0.00081 -0.00688 -0.00472  0.00810
  8   s           x  -0.12531 -0.06226  0.07615  0.00000 -0.00001  0.00005
                  y  -0.08099 -0.04912  0.17200  0.00005  0.00004 -0.00047
                  z  -0.00045 -0.00024  0.00069 -0.01762 -0.01082  0.02932
  9   c           x  -0.11228 -0.03047  0.00518 -0.00005  0.00000  0.00049
                  y  -0.05413 -0.03461  0.02233 -0.00043 -0.00011  0.00221
                  z  -0.00011 -0.00010  0.00009  0.11393  0.02568 -0.45508
 10   n           x  -0.22549 -0.17199  0.06790  0.00003 -0.00005  0.00008
                  y   0.05230  0.07067 -0.08432  0.00017 -0.00053 -0.00018
                  z  -0.00018  0.00015 -0.00028 -0.04741  0.13748  0.20912
 11   c           x  -0.05574  0.03146 -0.00236  0.00000  0.00015 -0.00004
                  y  -0.01009  0.01664  0.00666  0.00002  0.00093 -0.00132
                  z   0.00017  0.00008  0.00001 -0.00528 -0.25033  0.49341
 12   s           x   0.01399 -0.16019  0.00399  0.00001 -0.00001  0.00015
                  y   0.18383 -0.30579 -0.00525  0.00008 -0.00008 -0.00006
                  z   0.00067 -0.00123 -0.00002 -0.02424  0.02484 -0.04641
 13   n           x   0.07419  0.05571 -0.00136  0.00009 -0.00007  0.00024
                  y  -0.17065  0.13195  0.00304  0.00049 -0.00038  0.00108
                  z  -0.00068  0.00052 -0.00000 -0.13541  0.10693 -0.16170
 14   c           x   0.09919  0.18431 -0.00926 -0.00021  0.00001 -0.00021
                  y  -0.14182  0.31128 -0.00500 -0.00100  0.00007 -0.00015
                  z  -0.00058  0.00118  0.00001  0.28035 -0.02397  0.00427
 15   c           x   0.12893 -0.11034 -0.00025 -0.00007  0.00002 -0.00011
                  y  -0.20093  0.29488 -0.00357 -0.00030  0.00005 -0.00040
                  z  -0.00065  0.00096 -0.00000  0.08713 -0.02136  0.02834
 16   h           x   0.03147 -0.06381  0.00531  0.22369 -0.04334  0.07439
                  y  -0.31641  0.31100  0.00326 -0.53827  0.08204 -0.07043
                  z   0.01043 -0.02076 -0.00019 -0.27967  0.03978 -0.04596
 17   h           x   0.03163 -0.06365  0.00526 -0.22324  0.04327 -0.07424
                  y  -0.31670  0.31051  0.00340  0.54033 -0.08239  0.07052
                  z  -0.01248  0.02312  0.00016 -0.27609  0.03925 -0.04556
 18   o           x  -0.05384  0.40597 -0.01126  0.00010 -0.00002 -0.00040
                  y   0.13469  0.03680 -0.00353  0.00036 -0.00001 -0.00001
                  z   0.00051  0.00047 -0.00004 -0.10081  0.00504  0.00156
 19   br          x  -0.00095  0.00150 -0.00986 -0.00000 -0.00000  0.00000
                  y  -0.05802 -0.03003 -0.00020 -0.00000  0.00001 -0.00000
                  z  -0.00021 -0.00011 -0.00000 -0.00014 -0.00227 -0.00220
 20   h           x   0.02301 -0.03553 -0.60996 -0.00003 -0.00034 -0.00065
                  y   0.09533  0.02901 -0.07226 -0.00040 -0.00189 -0.00124
                  z   0.00026  0.00008 -0.00081  0.10988  0.50314  0.30540
 21   h           x  -0.00637 -0.11682 -0.21497 -0.00005 -0.00045 -0.00081
                  y   0.42965  0.25348  0.49307 -0.00044 -0.00277 -0.00181
                  z   0.00208  0.00112  0.00183  0.10639  0.70935  0.54760

reduced mass(g/mol)     9.586   12.405    5.592    2.656    3.556    7.616


       mode              31       32       33       34       35       36

     frequency         684.06   725.28   750.61   776.40   820.94   854.00

     symmetry            a        a        a        a        a        a   

        IR               YES      YES      YES      YES      YES      YES
|dDIP/dQ|   (a.u.)     0.0011   0.0008   0.0037   0.0003   0.0018   0.0047
intensity (km/mol)       2.23     1.00    24.08     0.18     5.84    39.21
intensity (  %   )       0.13     0.06     1.36     0.01     0.33     2.21
 
       RAMAN             YES      YES      YES      YES      YES      YES
 
  1   o           x  -0.06514  0.10328  0.06069 -0.00004 -0.00163  0.00001
                  y   0.07728 -0.10841 -0.07601 -0.00024  0.00035 -0.00024
                  z   0.00039 -0.00039 -0.00027  0.06791 -0.00000  0.05931
  2   c           x  -0.07836  0.01746  0.03528  0.00011 -0.00391  0.00013
                  y   0.01686 -0.18358 -0.07688  0.00115 -0.00488  0.00093
                  z  -0.00037 -0.00070 -0.00031 -0.28927 -0.00001 -0.22602
  3   c           x  -0.02006  0.09797  0.05935 -0.00012  0.00608 -0.00013
                  y  -0.05381 -0.19751 -0.10542 -0.00069 -0.01761  0.00009
                  z  -0.00003 -0.00061 -0.00032  0.20744 -0.00007  0.06595
  4   c           x   0.04002  0.19020  0.05279  0.00011  0.01031 -0.00012
                  y   0.00979  0.02513 -0.07468  0.00096 -0.00763  0.00018
                  z   0.00024  0.00008 -0.00029 -0.25782 -0.00002  0.00279
  5   c           x   0.07342  0.13994  0.06693 -0.00027  0.00312  0.00004
                  y  -0.02721  0.09440  0.02107 -0.00148 -0.00294  0.00031
                  z  -0.00034  0.00057  0.00019  0.38744 -0.00001 -0.07290
  6   c           x   0.19928 -0.04187 -0.11004  0.00012  0.00982 -0.00014
                  y   0.04709  0.47526  0.18018  0.00058  0.01725 -0.00054
                  z   0.00009  0.00174  0.00059 -0.17756  0.00007  0.10144
  7   c           x   0.18073 -0.28686 -0.20763  0.00003  0.00528 -0.00016
                  y   0.00880 -0.01300  0.01442 -0.00024  0.00391 -0.00066
                  z   0.00013 -0.00016 -0.00003  0.06159  0.00001  0.14718
  8   s           x  -0.03855 -0.12940 -0.05799  0.00002  0.00697 -0.00005
                  y   0.22283  0.04857 -0.10365 -0.00001 -0.00580  0.00009
                  z   0.00089  0.00011 -0.00042  0.00496 -0.00002 -0.00068
  9   c           x  -0.15266  0.02996  0.15985 -0.00005 -0.04137  0.00037
                  y  -0.30778 -0.17729  0.19359 -0.00022  0.02349 -0.00037
                  z  -0.00240 -0.00064  0.00083  0.06360  0.00006 -0.00114
 10   n           x  -0.10863  0.04083  0.18984  0.00008 -0.00715  0.00003
                  y  -0.36884 -0.25054  0.25076  0.00047 -0.02002 -0.00013
                  z  -0.00091 -0.00095  0.00101 -0.13220 -0.00008  0.02189
 11   c           x  -0.13591  0.08246 -0.00189 -0.00002 -0.02763  0.00041
                  y  -0.30590  0.09782 -0.32621 -0.00000  0.06947 -0.00023
                  z   0.00001  0.00044 -0.00121  0.00506  0.00023 -0.00490
 12   s           x  -0.07952  0.00907 -0.04171  0.00000 -0.14831 -0.00007
                  y   0.13314 -0.03141  0.10235 -0.00001 -0.02706  0.00005
                  z   0.00032 -0.00011  0.00035  0.00032 -0.00021  0.00036
 13   n           x  -0.08630  0.03606 -0.05413  0.00000 -0.03345  0.00012
                  y  -0.29717  0.16002 -0.33929  0.00002  0.07357  0.00011
                  z  -0.00156  0.00060 -0.00125 -0.00446  0.00026  0.00130
 14   c           x   0.11702 -0.01805 -0.04074  0.00000 -0.04833 -0.00013
                  y   0.09400 -0.00973 -0.00336 -0.00001 -0.04145 -0.00003
                  z   0.00041 -0.00004 -0.00004  0.00178 -0.00021  0.00074
 15   c           x   0.04661 -0.03780  0.02158  0.00001  0.48310  0.00001
                  y   0.19794 -0.11615  0.31444 -0.00000  0.03648  0.00009
                  z   0.00081 -0.00045  0.00115 -0.00103  0.00051 -0.00064
 16   h           x  -0.02271 -0.03137  0.03073 -0.00873  0.55676 -0.00032
                  y   0.10276 -0.11240  0.34186 -0.00302  0.21337  0.00200
                  z  -0.00092 -0.00118  0.00069  0.00287  0.03629  0.00036
 17   h           x  -0.02302 -0.03140  0.03080  0.00874  0.55674  0.00045
                  y   0.10300 -0.11238  0.34185  0.00298  0.21360 -0.00163
                  z   0.00146  0.00030  0.00188  0.00290 -0.03391  0.00034
 18   o           x   0.24176 -0.05601  0.01703  0.00000 -0.04842 -0.00017
                  y  -0.00308  0.01907 -0.07188  0.00000 -0.07385 -0.00006
                  z   0.00019  0.00002 -0.00025 -0.00010 -0.00030 -0.00026
 19   br          x  -0.00093  0.00118 -0.00044 -0.00000 -0.00020  0.00000
                  y   0.00656  0.02699  0.01373 -0.00000  0.00171 -0.00003
                  z   0.00002  0.00010  0.00005 -0.00194  0.00001 -0.00070
 20   h           x   0.26670  0.08687 -0.18160 -0.00000  0.01421  0.00035
                  y   0.05131  0.48001  0.17794 -0.00017  0.01804  0.00249
                  z   0.00122  0.00173  0.00048  0.01699  0.00011 -0.69359
 21   h           x   0.29533 -0.17495 -0.21611 -0.00043  0.01793  0.00024
                  y  -0.20759 -0.20973  0.03471 -0.00300 -0.01913  0.00261
                  z   0.00073 -0.00080  0.00013  0.77116 -0.00004 -0.64975

reduced mass(g/mol)    11.792    9.012    9.213    5.516    4.649    2.087


       mode              37       38       39       40       41       42

     frequency         856.98   891.26   916.82   929.53   958.70   992.73

     symmetry            a        a        a        a        a        a   

        IR               YES      YES      YES      YES      YES      YES
|dDIP/dQ|   (a.u.)     0.0033   0.0042   0.0022   0.0056   0.0108   0.0004
intensity (km/mol)      18.94    31.53     8.45    55.49   205.40     0.22
intensity (  %   )       1.07     1.78     0.48     3.13    11.58     0.01
 
       RAMAN             YES      YES      YES      YES      YES      YES
 
  1   o           x  -0.02263  0.01601  0.00001  0.23416  0.13975  0.00001
                  y  -0.00149 -0.00125 -0.00000 -0.06222 -0.01973 -0.00003
                  z   0.00030 -0.00000  0.00031 -0.00018 -0.00001  0.00666
  2   c           x  -0.03777  0.00299  0.00000  0.07190  0.00652  0.00001
                  y  -0.04657 -0.01139  0.00000 -0.16023 -0.16492  0.00007
                  z  -0.00138 -0.00003 -0.00109 -0.00048 -0.00069 -0.01767
  3   c           x   0.09150 -0.02890 -0.00001 -0.37556 -0.25591 -0.00002
                  y  -0.29218  0.05011  0.00003  0.27522 -0.42305 -0.00001
                  z  -0.00069  0.00017 -0.00052  0.00083 -0.00165  0.00034
  4   c           x   0.10996 -0.02686 -0.00002 -0.44224 -0.18666 -0.00002
                  y  -0.18492  0.04141  0.00001  0.08301 -0.17894 -0.00002
                  z  -0.00060  0.00014  0.00038  0.00002 -0.00079  0.00129
  5   c           x   0.02244  0.00184  0.00001  0.12665 -0.13489 -0.00002
                  y  -0.04581 -0.00759 -0.00001 -0.09003  0.02190 -0.00007
                  z  -0.00052 -0.00004  0.00264 -0.00027  0.00000  0.01876
  6   c           x   0.08125  0.00898 -0.00001 -0.04176  0.02352  0.00008
                  y   0.16634  0.01611 -0.00000  0.15149  0.10033  0.00046
                  z   0.00120  0.00007  0.00058  0.00056  0.00044 -0.11801
  7   c           x   0.07077  0.00196 -0.00001 -0.06701  0.25919 -0.00007
                  y   0.08312 -0.00942 -0.00000  0.05369  0.27317 -0.00040
                  z   0.00111 -0.00003  0.00012  0.00014  0.00119  0.10811
  8   s           x   0.05771  0.02474  0.00000  0.10299  0.05453  0.00000
                  y  -0.08626  0.00258  0.00000  0.00610  0.03533  0.00000
                  z  -0.00030  0.00002  0.00039  0.00009  0.00017 -0.00008
  9   c           x  -0.37736 -0.09649  0.00001 -0.05477  0.04334 -0.00000
                  y   0.37729  0.02539 -0.00002  0.11634 -0.12331 -0.00000
                  z   0.00120  0.00005  0.00306  0.00040 -0.00042  0.00015
[...]
 
  1   o           x  -0.00752  0.00484  0.00000  0.00085 -0.00613  0.02219
                  y  -0.02070  0.00191 -0.00000 -0.00085  0.00540 -0.06309
                  z  -0.00009  0.00001 -0.00002 -0.00000  0.00002 -0.00024
  2   c           x   0.04567 -0.03249  0.00000  0.00091 -0.00335  0.21073
                  y   0.09935 -0.03978  0.00001  0.00463 -0.02617  0.39946
                  z   0.00042 -0.00015  0.00006  0.00002 -0.00010  0.00163
  3   c           x   0.09953  0.05207 -0.00000 -0.00217  0.01637 -0.18862
                  y   0.13542  0.07163 -0.00000 -0.00315  0.04029 -0.20170
                  z   0.00055  0.00029 -0.00013 -0.00001  0.00016 -0.00083
  4   c           x  -0.19075  0.01962 -0.00001 -0.00488 -0.00299 -0.04303
                  y  -0.32719  0.02007 -0.00001 -0.00542 -0.01754 -0.02052
                  z  -0.00133  0.00009  0.00046 -0.00002 -0.00007 -0.00010
  5   c           x  -0.07820 -0.01110  0.00000  0.00300  0.03190  0.11755
                  y  -0.04436 -0.04785  0.00000  0.00030  0.01697  0.16334
                  z  -0.00022 -0.00018  0.00046  0.00000  0.00009  0.00069
  6   c           x   0.06830 -0.02263  0.00000 -0.00079  0.02704 -0.09032
                  y   0.16446  0.04349  0.00000  0.00148 -0.01220 -0.04628
                  z   0.00067  0.00014 -0.00066  0.00000 -0.00003 -0.00024
  7   c           x  -0.06175  0.04743 -0.00001 -0.00040 -0.02659 -0.05638
                  y  -0.08258 -0.01128 -0.00000 -0.00092 -0.01290 -0.14079
                  z  -0.00036 -0.00001  0.00013 -0.00000 -0.00007 -0.00058
  8   s           x   0.04214 -0.00466  0.00000  0.00042 -0.00810  0.00848
                  y   0.02904 -0.00083  0.00000  0.00075  0.00868  0.00752
                  z   0.00014 -0.00001 -0.00009  0.00000  0.00003  0.00003
  9   c           x  -0.01481  0.00619  0.00000  0.01148 -0.00204  0.07372
                  y  -0.00872 -0.00695 -0.00002 -0.00830 -0.17125 -0.11849
                  z  -0.00004 -0.00002  0.00481 -0.00002 -0.00064 -0.00041
 10   n           x  -0.05961 -0.02930 -0.00000 -0.00419  0.10644  0.03262
                  y   0.05143  0.02973  0.00000  0.00454  0.13105  0.01538
                  z   0.00015  0.00009 -0.00042  0.00001  0.00055  0.00007
 11   c           x   0.05119  0.00144  0.00000 -0.00067 -0.08215 -0.08320
                  y  -0.03622 -0.00244  0.00001  0.01101 -0.05513  0.11959
                  z  -0.00011 -0.00001 -0.00265  0.00004 -0.00024  0.00040
 12   s           x  -0.00210 -0.00037  0.00001 -0.00336 -0.00127  0.00086
                  y   0.00091  0.00067  0.00005  0.01399  0.00681 -0.00436
                  z   0.00000  0.00000 -0.01314  0.00005  0.00002 -0.00001
 13   n           x   0.02002  0.00998  0.00002  0.00417 -0.37332 -0.03957
                  y   0.03415  0.00145  0.00008 -0.04061  0.23846 -0.06249
                  z   0.00014  0.00001 -0.02321 -0.00014  0.00059 -0.00025
 14   c           x   0.00444 -0.00525 -0.00009 -0.01099  0.35371 -0.00477
                  y  -0.01503  0.00340 -0.00043  0.04402 -0.51789  0.01276
                  z  -0.00006  0.00002  0.11816  0.00015 -0.00161  0.00004
 15   c           x  -0.00620 -0.00099  0.00002 -0.09255 -0.08580  0.01577
                  y   0.00887 -0.00203  0.00010 -0.15637  0.07804  0.00884
                  z   0.00003 -0.00001 -0.03006 -0.00064  0.00022  0.00004
 16   h           x  -0.00699  0.00375  0.38671  0.40628  0.19358 -0.02646
                  y   0.00486  0.00530  0.58521  0.56147  0.26269 -0.06054
                  z  -0.00204  0.00041  0.00160  0.01881 -0.08184 -0.00354
 17   h           x  -0.00693  0.00368 -0.38668  0.40638  0.19347 -0.02645
                  y   0.00496  0.00520 -0.58516  0.56164  0.26210 -0.06056
                  z   0.00207 -0.00037 -0.00326 -0.01409  0.08405  0.00306
 18   o           x  -0.01316 -0.00186  0.00002  0.02615  0.08511  0.01515
                  y  -0.00028 -0.00024  0.00008  0.01567  0.11694 -0.00106
                  z  -0.00001 -0.00000 -0.02075  0.00008  0.00049  0.00001
 19   br          x  -0.00297  0.00014 -0.00000 -0.00003  0.00001 -0.00051
                  y  -0.00341 -0.00274  0.00000  0.00016 -0.00134  0.00389
                  z  -0.00001 -0.00001 -0.00001  0.00000 -0.00000  0.00001
 20   h           x   0.69688 -0.66290  0.00007  0.01391 -0.23446 -0.32582
                  y   0.17668  0.04328 -0.00000  0.00179 -0.01879 -0.05885
                  z   0.00103 -0.00016  0.00174  0.00002 -0.00022 -0.00038
 21   h           x   0.14073  0.37914 -0.00003 -0.00216 -0.09440  0.20495
                  y  -0.46201 -0.62797  0.00004  0.00254  0.10781 -0.65609
                  z  -0.00165 -0.00223  0.00021  0.00001  0.00037 -0.00237

reduced mass(g/mol)     3.828    1.238    1.191    1.441    9.222    5.546


       mode              49       50       51       52       53       54

     frequency        1309.80  1352.54  1422.33  1432.11  1510.48  1534.51

     symmetry            a        a        a        a        a        a   

        IR               YES      YES      YES      YES      YES      YES
|dDIP/dQ|   (a.u.)     0.0137   0.0015   0.0125   0.0032   0.0165   0.0273
intensity (km/mol)     333.06     3.82   276.57    17.92   483.33  1324.14
intensity (  %   )      18.78     0.22    15.60     1.01    27.25    74.67
 
       RAMAN             YES      YES      YES      YES      YES      YES
 
  1   o           x   0.01646  0.03590 -0.02137  0.00057  0.00867 -0.07368
                  y  -0.02621 -0.01948  0.02485 -0.00083 -0.02692  0.03485
                  z  -0.00009 -0.00006  0.00009 -0.00000 -0.00010  0.00011
  2   c           x   0.06531 -0.02464 -0.07109  0.00369  0.02227  0.13436
                  y   0.10292 -0.02717 -0.16602  0.00916  0.02566  0.08114
                  z   0.00042 -0.00011 -0.00067  0.00004  0.00011  0.00035
  3   c           x  -0.07297 -0.03941  0.18846 -0.01000  0.09240 -0.05018
                  y  -0.08805 -0.00404  0.02893 -0.00180 -0.06445 -0.05449
                  z  -0.00036 -0.00003  0.00020 -0.00001 -0.00019 -0.00023
  4   c           x   0.05691  0.03387 -0.09091  0.00506 -0.08647  0.06414
                  y   0.10698  0.09718 -0.20353  0.01007  0.08490  0.12535
                  z   0.00044  0.00038 -0.00081  0.00004  0.00026  0.00050
  5   c           x  -0.12671 -0.07442 -0.23553  0.01113 -0.01268 -0.47405
                  y   0.01905 -0.14155  0.53142 -0.02799  0.05097 -0.16030
                  z  -0.00001 -0.00058  0.00182 -0.00010  0.00018 -0.00090
  6   c           x  -0.09626 -0.08779 -0.14439  0.00830  0.12850  0.12598
                  y  -0.03111 -0.01542 -0.14769  0.00986 -0.11373  0.21567
                  z  -0.00017 -0.00011 -0.00064  0.00004 -0.00036  0.00090
  7   c           x   0.01577 -0.01087  0.07565 -0.00161 -0.17724  0.11802
                  y   0.04817  0.14937  0.12581 -0.01000  0.13873 -0.25598
                  z   0.00020  0.00057  0.00053 -0.00004  0.00043 -0.00092
  8   s           x  -0.00085 -0.00545 -0.00201  0.00012  0.00443 -0.00042
                  y  -0.01669 -0.00024  0.00823 -0.00059 -0.00067 -0.00150
                  z  -0.00006 -0.00000  0.00003 -0.00000  0.00000 -0.00001
  9   c           x  -0.10131  0.07928  0.07201  0.00097 -0.59148 -0.07571
                  y   0.30422 -0.09434 -0.01001  0.00880 -0.28575 -0.03789
                  z   0.00108 -0.00031  0.00000  0.00003 -0.00137 -0.00017
 10   n           x   0.01367  0.05992  0.24594 -0.01954  0.37089  0.21139
                  y  -0.19489  0.05847 -0.18069  0.00423  0.21922 -0.00309
                  z  -0.00070  0.00025 -0.00050  0.00000  0.00103  0.00013
 11   c           x   0.13918 -0.04313  0.05879  0.00464 -0.01419  0.21433
                  y  -0.25199  0.10109  0.14060 -0.00473 -0.16360  0.13233
                  z  -0.00086  0.00035  0.00055 -0.00002 -0.00062  0.00060
 12   s           x  -0.00031  0.00031 -0.00101 -0.00173 -0.00047 -0.00232
                  y   0.00933 -0.00280 -0.00350  0.00212 -0.00097 -0.00382
                  z   0.00003 -0.00001 -0.00001  0.00001 -0.00001 -0.00002
 13   n           x   0.00953 -0.04958 -0.11617  0.00569  0.24823 -0.14189
                  y   0.14368 -0.05497 -0.10992 -0.00192  0.09277 -0.12015
                  z   0.00052 -0.00023 -0.00047 -0.00000  0.00049 -0.00053
 14   c           x   0.05102  0.00070  0.00464 -0.00730 -0.02990  0.03330
                  y  -0.08928  0.00754  0.04201  0.01149  0.08527  0.05245
                  z  -0.00028  0.00003  0.00016  0.00004  0.00029  0.00022
 15   c           x  -0.03359  0.00723 -0.01773 -0.06464 -0.01367  0.00424
                  y  -0.00423  0.00555  0.01810  0.04535 -0.01438 -0.00151
                  z  -0.00004  0.00002  0.00005  0.00011 -0.00006 -0.00000
 16   h           x   0.05588 -0.00487  0.16537  0.45701  0.08152 -0.04054
                  y   0.11816 -0.03881 -0.16140 -0.31078 -0.00148 -0.01070
                  z  -0.00257 -0.01026 -0.17347 -0.43568 -0.04998  0.02184
 17   h           x   0.05585 -0.00488  0.16510  0.45634  0.08141 -0.04053
                  y   0.11813 -0.03888 -0.16268 -0.31394 -0.00186 -0.01057
                  z   0.00351  0.00997  0.17255  0.43412  0.05009 -0.02198
 18   o           x  -0.01432  0.01262  0.00641 -0.00431 -0.05246 -0.01427
                  y   0.01649 -0.00072 -0.01456 -0.00422 -0.02509 -0.02514
                  z   0.00005  0.00001 -0.00005 -0.00002 -0.00013 -0.00010
 19   br          x   0.00048  0.00096 -0.00128  0.00006 -0.00013  0.00043
                  y   0.00117 -0.00037  0.00186 -0.00008  0.00092 -0.00076
                  z   0.00000 -0.00000  0.00001 -0.00000  0.00000 -0.00000
 20   h           x   0.39414  0.76682 -0.06988 -0.00286 -0.10523 -0.34587
                  y  -0.02758 -0.01009 -0.14420  0.01009 -0.14172  0.25448
                  z   0.00012  0.00041 -0.00061  0.00004 -0.00065  0.00075
 21   h           x   0.35968  0.31353  0.27926 -0.01882  0.05107 -0.21537
                  y  -0.59193 -0.44621 -0.23986  0.02179 -0.33086  0.40159
                  z  -0.00206 -0.00153 -0.00079  0.00007 -0.00123  0.00144

reduced mass(g/mol)     4.769    2.265    8.644    1.103   10.762    7.837


       mode              55       56       57       58       59       60

     frequency        1567.74  1620.58  1684.38  1735.04  1847.46  3076.87

     symmetry            a        a        a        a        a        a   

        IR               YES      YES      YES      YES      YES      YES
|dDIP/dQ|   (a.u.)     0.0092   0.0316   0.0137   0.0147   0.0181   0.0036
intensity (km/mol)     150.19  1773.41   333.17   381.65   584.85    23.53
intensity (  %   )       8.47   100.00    18.79    21.52    32.98     1.33
 
       RAMAN             YES      YES      YES      YES      YES      YES
 
  1   o           x   0.01779 -0.07532 -0.17458  0.36246  0.00577 -0.00003
                  y   0.03341  0.04874  0.10472 -0.19290 -0.00323  0.00002
                  z   0.00014  0.00016  0.00035 -0.00062 -0.00001  0.00000
  2   c           x   0.00834  0.03156  0.19706 -0.63103 -0.00921  0.00004
                  y  -0.07888 -0.01092 -0.14537  0.32692  0.00443 -0.00001
                  z  -0.00030 -0.00004 -0.00050  0.00102  0.00001 -0.00000
  3   c           x  -0.44797  0.16288  0.16322  0.13483  0.00431 -0.00005
                  y   0.28939 -0.10399 -0.06852 -0.02625  0.00043 -0.00003
                  z   0.00083 -0.00030 -0.00017 -0.00003  0.00000 -0.00000
  4   c           x   0.50033 -0.17479 -0.20419 -0.04107 -0.00467  0.00003
                  y  -0.34034  0.11928  0.11459  0.04407  0.00265 -0.00001
                  z  -0.00097  0.00034  0.00031  0.00014  0.00001 -0.00000
  5   c           x   0.02739 -0.15119  0.35162  0.04849 -0.00873 -0.00000
                  y   0.08974 -0.00591 -0.03634 -0.00051 -0.00184  0.00001
                  z   0.00035 -0.00012  0.00009  0.00003 -0.00001  0.00000
  6   c           x  -0.28513 -0.25573 -0.42676 -0.17119  0.00386  0.00003
                  y   0.07774  0.15520  0.06826  0.05364  0.00077 -0.00002
                  z   0.00013  0.00044  0.00001  0.00010  0.00000 -0.00000
  7   c           x   0.20777  0.27025  0.22809  0.19401  0.00026 -0.00004
                  y  -0.11331 -0.21342 -0.13077 -0.15922 -0.00105  0.00001
                  z  -0.00032 -0.00067 -0.00037 -0.00051 -0.00000  0.00000
  8   s           x  -0.01644  0.00168  0.01001  0.00068 -0.00156 -0.00001
                  y   0.00592 -0.00084 -0.00049 -0.00215  0.00087 -0.00000
                  z   0.00001 -0.00000  0.00000 -0.00001  0.00000 -0.00000
  9   c           x  -0.17409  0.19879 -0.24216 -0.11787  0.09736 -0.00015
                  y  -0.08471 -0.06449 -0.02544 -0.01132  0.00630 -0.00002
                  z  -0.00041 -0.00014 -0.00022 -0.00010  0.00007 -0.00000
 10   n           x   0.09846  0.15795 -0.04734  0.03571 -0.01518  0.00002
                  y   0.08975 -0.01758  0.07337  0.02213 -0.01424  0.00005
                  z   0.00039  0.00003  0.00024  0.00010 -0.00006  0.00000
 11   c           x  -0.04823 -0.49476  0.29299  0.12618 -0.18291  0.00062
                  y  -0.05609 -0.18125  0.06540  0.02038 -0.05989 -0.00049
                  z  -0.00024 -0.00093  0.00040  0.00014 -0.00032 -0.00000
 12   s           x   0.00073  0.00686 -0.00484 -0.00195 -0.00562  0.00017
                  y  -0.00105  0.00273 -0.00005  0.00044  0.00022 -0.00009
                  z  -0.00000  0.00002 -0.00000  0.00000 -0.00000 -0.00000
 13   n           x   0.09108  0.27467 -0.12742 -0.05320  0.00848  0.00049
                  y   0.04033  0.18237 -0.07994 -0.02873  0.03187  0.00001
                  z   0.00020  0.00084 -0.00037 -0.00014  0.00011  0.00000
 14   c           x  -0.00866 -0.09368  0.06737  0.02250  0.73072 -0.00081
                  y   0.02237 -0.06246  0.03675  0.00669  0.36934 -0.00107
                  z   0.00007 -0.00031  0.00019  0.00004  0.00189 -0.00000
 15   c           x  -0.00323  0.00159 -0.00374 -0.00140 -0.02215 -0.05498
                  y  -0.00521 -0.00659  0.00469  0.00306 -0.01125  0.04124
                  z  -0.00002 -0.00002  0.00001  0.00001 -0.00006  0.00011
 16   h           x   0.02206  0.06069 -0.02725 -0.01456  0.02857  0.32181
                  y   0.00511  0.01159 -0.00148 -0.00183  0.08197 -0.23745
                  z  -0.01067 -0.02573  0.01033  0.00564  0.02198  0.58110
 17   h           x   0.02204  0.06067 -0.02724 -0.01455  0.02860  0.32272
                  y   0.00503  0.01143 -0.00142 -0.00179  0.08212 -0.23323
                  z   0.01074  0.02591 -0.01038 -0.00567 -0.02133 -0.58233
 18   o           x  -0.01467  0.03861 -0.03477 -0.01010 -0.44573  0.00015
                  y  -0.00584  0.04244 -0.02745 -0.00768 -0.25662 -0.00001
                  z  -0.00003  0.00019 -0.00013 -0.00004 -0.00127  0.00000
 19   br          x   0.00119 -0.00046 -0.00019 -0.00131 -0.00000 -0.00000
                  y  -0.00403  0.00134  0.00128 -0.00218 -0.00018  0.00000
                  z  -0.00001  0.00000  0.00000 -0.00001 -0.00000  0.00000
 20   h           x   0.25749  0.20882  0.44785  0.12480 -0.00467  0.00003
                  y   0.10511  0.20055  0.08230  0.06470  0.00049  0.00026
                  z   0.00060  0.00093  0.00062  0.00036 -0.00000  0.00000
 21   h           x   0.08359  0.02362  0.16205 -0.09928 -0.00265  0.00033
                  y   0.17925  0.33622  0.09262  0.37374  0.00170  0.00020
                  z   0.00074  0.00131  0.00044  0.00141  0.00001  0.00000

reduced mass(g/mol)    10.785   10.054    9.564   10.827   12.893    1.060


       mode              61       62       63

     frequency        3139.22  3188.83  3208.74

     symmetry            a        a        a   

        IR               YES      YES      YES
|dDIP/dQ|   (a.u.)     0.0009   0.0013   0.0042
intensity (km/mol)       1.40     2.97    31.44
intensity (  %   )       0.08     0.17     1.77
 
       RAMAN             YES      YES      YES
 
  1   o           x   0.00000 -0.00029 -0.00069
                  y   0.00000  0.00010  0.00051
                  z  -0.00000  0.00000  0.00000
  2   c           x  -0.00000  0.00107  0.00147
                  y  -0.00000 -0.00115 -0.00266
                  z   0.00000 -0.00000 -0.00001
  3   c           x   0.00000  0.00005 -0.00009
                  y   0.00000  0.00011 -0.00012
                  z  -0.00000  0.00000 -0.00000
  4   c           x   0.00000 -0.00053 -0.00018
                  y   0.00000  0.00050 -0.00019
                  z  -0.00001  0.00000 -0.00000
  5   c           x  -0.00000  0.00214 -0.00296
                  y  -0.00000  0.00017 -0.00094
                  z   0.00001  0.00000 -0.00001
  6   c           x   0.00000 -0.00147 -0.00435
                  y   0.00000 -0.06353  0.06027
                  z  -0.00000 -0.00024  0.00023
  7   c           x   0.00000  0.04856  0.06112
                  y   0.00000  0.02749  0.02749
                  z  -0.00000  0.00014  0.00015
  8   s           x   0.00000  0.00003  0.00001
                  y  -0.00000  0.00004  0.00002
                  z   0.00000  0.00000  0.00000
  9   c           x  -0.00000 -0.00047  0.00047
                  y  -0.00000 -0.00014 -0.00004
                  z   0.00011 -0.00000  0.00000
 10   n           x   0.00000  0.00010  0.00021
                  y  -0.00000  0.00007 -0.00001
                  z   0.00002  0.00000  0.00000
 11   c           x   0.00000  0.00020 -0.00033
                  y  -0.00000 -0.00008  0.00007
                  z   0.00012 -0.00000  0.00000
 12   s           x   0.00000 -0.00001  0.00001
                  y   0.00000  0.00001 -0.00002
                  z  -0.00034  0.00000 -0.00000
 13   n           x  -0.00000 -0.00010  0.00019
                  y  -0.00000  0.00001  0.00000
                  z   0.00020 -0.00000  0.00000
 14   c           x  -0.00000  0.00008 -0.00019
                  y  -0.00000 -0.00003  0.00004
                  z   0.00036 -0.00000  0.00000
 15   c           x  -0.00007 -0.00001 -0.00002
                  y  -0.00035  0.00002 -0.00001
                  z   0.09570  0.00000 -0.00000
 16   h           x  -0.33286  0.00000  0.00022
                  y   0.25024 -0.00001 -0.00011
                  z  -0.56747  0.00004  0.00026
 17   h           x   0.33373  0.00000  0.00022
                  y  -0.24610 -0.00001 -0.00011
                  z  -0.56873 -0.00004 -0.00026
 18   o           x   0.00000 -0.00003  0.00008
                  y   0.00000 -0.00000  0.00002
                  z  -0.00021 -0.00000  0.00000
 19   br          x   0.00000  0.00000  0.00000
                  y   0.00000  0.00000  0.00001
                  z  -0.00000  0.00000  0.00000
 20   h           x  -0.00000 -0.00304  0.00713
                  y  -0.00000  0.74447 -0.66098
                  z   0.00001  0.00284 -0.00252
 21   h           x  -0.00000 -0.58398 -0.65865
                  y  -0.00000 -0.31233 -0.34793
                  z   0.00001 -0.00158 -0.00177

reduced mass(g/mol)     1.109    1.087    1.098
 

         **************************************************************
         *                                                            *
         *  zero point VIBRATIONAL energy  :      0.1254629  Hartree  *
         *    SCF-energy                   :  -4011.7324576           *
         *    SCF + E(vib0)                :  -4011.6069947           *
         *                                                            *
         **************************************************************




 time elapsed for vibrational analysis     0.02 sec


    ------------------------------------------------------------------------
         total  cpu-time : 37 minutes and 38 seconds
         total wall-time : 37 minutes and 38 seconds
    ------------------------------------------------------------------------

   ****  force : all done  ****


    2018-02-07 14:59:30.445 

aoforce ended normally 
