[Molden Format]
[Title]
                                                                                
[Atoms] AU
 o     1    8 -.12832027404659E+02 0.67197048487632E+01 -.60427056029100E-02
 c     2    6 -.10806507987279E+02 0.55711038144779E+01 -.38551501606700E-02
 c     3    6 -.83619872130391E+01 0.68136315209267E+01 -.91506330221300E-02
 c     4    6 -.61490650638155E+01 0.54549031005475E+01 -.65486270784600E-02
 c     5    6 -.61152691079243E+01 0.27321282593529E+01 0.16195665936200E-02
 c     6    6 -.84633380289465E+01 0.14238938892274E+01 0.71691535787500E-02
 c     7    6 -.10661238864479E+02 0.27737168826196E+01 0.44834085237300E-02
 s     8   16 -.30310775328400E+01 0.65219253098243E+01 -.11743811839570E-01
 c     9    6 -.20047344298197E+01 0.33382086707217E+01 -.28251343446600E-02
 n    10    7 -.38338140210063E+01 0.16501703286451E+01 0.34156649942800E-02
 c    11    6 0.60052906611173E+00 0.27192730248517E+01 -.25682352912300E-02
 s    12   16 0.14132263140653E+01 -.55092500298979E+00 0.67425039346000E-02
 n    13    7 0.24348592045764E+01 0.43654996561753E+01 -.86377380674300E-02
 c    14    6 0.47894851235853E+01 0.32770143918356E+01 -.69577531859700E-02
 c    15    6 0.46930787792170E+01 0.35189760214647E+00 0.19117409795700E-02
 h    16    1 0.56850988027493E+01 -.36193175947410E+00 0.16899750836096E+01
 h    17    1 0.56829203809315E+01 -.37208822888283E+00 -.16831026022999E+01
 o    18    8 0.67894572857996E+01 0.43864732877284E+01 -.11660786839360E-01
 h    19    1 -.83932885039657E+01 0.88790496298557E+01 -.15293966965070E-01
 br   20   35 -.13797751436371E+02 0.10615488758088E+01 0.11579134949030E-01
 h    21    1 -.84559463836652E+01 -.64076718549107E+00 0.13580199469300E-01
[GTO]
    1 0
 s    5 1.00
 0.22661767785000E+04 -.53893503921743E-02
 0.34087010191000E+03 -.40234721388960E-01
 0.77363135167000E+02 -.18008184205526E+00
 0.21479644940000E+02 -.46828857657651E+00
 0.66589433124000E+01 -.44692617160187E+00
 s    1 1.00
 0.80975975668000E+00 0.10000000000000E+01
 s    1 1.00
 0.25530772234000E+00 0.10000000000000E+01
 p    3 1.00
 0.17721504317000E+02 0.62630248763161E-01
 0.38635505440000E+01 0.33331138482352E+00
 0.10480920883000E+01 0.74148638308122E+00
 p    1 1.00
 0.27641544411000E+00 0.10000000000000E+01
 d    1 1.00
 0.12000000000000E+01 0.10000000000000E+01
 
    2 0
 s    5 1.00
 0.12384016938000E+04 0.55173650481097E-02
 0.18629004992000E+03 0.41088828555946E-01
 0.42251176346000E+02 0.18225382126490E+00
 0.11676557932000E+02 0.46828459437429E+00
 0.35930506482000E+01 0.44575817336002E+00
 s    1 1.00
 0.40245147363000E+00 0.10000000000000E+01
 s    1 1.00
 0.13090182668000E+00 0.10000000000000E+01
 p    3 1.00
 0.94680970621000E+01 0.56888332011037E-01
 0.20103545142000E+01 0.31294059336471E+00
 0.54771004707000E+00 0.76065016509135E+00
 p    1 1.00
 0.15268613795000E+00 0.10000000000000E+01
 d    1 1.00
 0.80000000000000E+00 0.10000000000000E+01
 
    3 0
 s    5 1.00
 0.12384016938000E+04 0.55173650481097E-02
 0.18629004992000E+03 0.41088828555946E-01
 0.42251176346000E+02 0.18225382126490E+00
 0.11676557932000E+02 0.46828459437429E+00
 0.35930506482000E+01 0.44575817336002E+00
 s    1 1.00
 0.40245147363000E+00 0.10000000000000E+01
 s    1 1.00
 0.13090182668000E+00 0.10000000000000E+01
 p    3 1.00
 0.94680970621000E+01 0.56888332011037E-01
 0.20103545142000E+01 0.31294059336471E+00
 0.54771004707000E+00 0.76065016509135E+00
 p    1 1.00
 0.15268613795000E+00 0.10000000000000E+01
 d    1 1.00
 0.80000000000000E+00 0.10000000000000E+01
 
    4 0
 s    5 1.00
 0.12384016938000E+04 0.55173650481097E-02
 0.18629004992000E+03 0.41088828555946E-01
 0.42251176346000E+02 0.18225382126490E+00
 0.11676557932000E+02 0.46828459437429E+00
 0.35930506482000E+01 0.44575817336002E+00
 s    1 1.00
 0.40245147363000E+00 0.10000000000000E+01
 s    1 1.00
 0.13090182668000E+00 0.10000000000000E+01
 p    3 1.00
 0.94680970621000E+01 0.56888332011037E-01
 0.20103545142000E+01 0.31294059336471E+00
 0.54771004707000E+00 0.76065016509135E+00
 p    1 1.00
 0.15268613795000E+00 0.10000000000000E+01
 d    1 1.00
 0.80000000000000E+00 0.10000000000000E+01
 
    5 0
 s    5 1.00
 0.12384016938000E+04 0.55173650481097E-02
 0.18629004992000E+03 0.41088828555946E-01
 0.42251176346000E+02 0.18225382126490E+00
 0.11676557932000E+02 0.46828459437429E+00
 0.35930506482000E+01 0.44575817336002E+00
 s    1 1.00
 0.40245147363000E+00 0.10000000000000E+01
 s    1 1.00
 0.13090182668000E+00 0.10000000000000E+01
 p    3 1.00
 0.94680970621000E+01 0.56888332011037E-01
 0.20103545142000E+01 0.31294059336471E+00
 0.54771004707000E+00 0.76065016509135E+00
 p    1 1.00
 0.15268613795000E+00 0.10000000000000E+01
 d    1 1.00
 0.80000000000000E+00 0.10000000000000E+01
 
    6 0
 s    5 1.00
 0.12384016938000E+04 0.55173650481097E-02
 0.18629004992000E+03 0.41088828555946E-01
 0.42251176346000E+02 0.18225382126490E+00
 0.11676557932000E+02 0.46828459437429E+00
 0.35930506482000E+01 0.44575817336002E+00
 s    1 1.00
 0.40245147363000E+00 0.10000000000000E+01
 s    1 1.00
 0.13090182668000E+00 0.10000000000000E+01
 p    3 1.00
 0.94680970621000E+01 0.56888332011037E-01
 0.20103545142000E+01 0.31294059336471E+00
 0.54771004707000E+00 0.76065016509135E+00
 p    1 1.00
 0.15268613795000E+00 0.10000000000000E+01
 d    1 1.00
 0.80000000000000E+00 0.10000000000000E+01
 
    7 0
 s    5 1.00
 0.12384016938000E+04 0.55173650481097E-02
 0.18629004992000E+03 0.41088828555946E-01
 0.42251176346000E+02 0.18225382126490E+00
 0.11676557932000E+02 0.46828459437429E+00
 0.35930506482000E+01 0.44575817336002E+00
 s    1 1.00
 0.40245147363000E+00 0.10000000000000E+01
 s    1 1.00
 0.13090182668000E+00 0.10000000000000E+01
 p    3 1.00
 0.94680970621000E+01 0.56888332011037E-01
 0.20103545142000E+01 0.31294059336471E+00
 0.54771004707000E+00 0.76065016509135E+00
 p    1 1.00
 0.15268613795000E+00 0.10000000000000E+01
 d    1 1.00
 0.80000000000000E+00 0.10000000000000E+01
 
    8 0
 s    5 1.00
 0.91849303010000E+04 -.54729466134731E-02
 0.13815105503000E+04 -.40954402155135E-01
 0.31387147580000E+03 -.18475828956188E+00
 0.88053870623000E+02 -.47567280643953E+00
 0.27039914905000E+02 -.43495153584169E+00
 s    3 1.00
 0.45648731303000E+02 -.91904045808942E-01
 0.49664522326000E+01 0.55698777214497E+00
 0.20116242047000E+01 0.51115468298460E+00
 s    1 1.00
 0.35661077013000E+00 0.10000000000000E+01
 s    1 1.00
 0.13507221477000E+00 0.10000000000000E+01
 p    5 1.00
 0.26198233439000E+03 -.91830546592660E-02
 0.61306894736000E+02 -.65902226525990E-01
 0.19103729887000E+02 -.24587784518735E+00
 0.66567720378000E+01 -.48231471076020E+00
 0.23959635161000E+01 -.38956314351423E+00
 p    1 1.00
 0.61776161679000E+00 0.10000000000000E+01
 p    1 1.00
 0.16993376871000E+00 0.10000000000000E+01
 d    1 1.00
 0.55000000000000E+00 0.10000000000000E+01
 
    9 0
 s    5 1.00
 0.12384016938000E+04 0.55173650481097E-02
 0.18629004992000E+03 0.41088828555946E-01
 0.42251176346000E+02 0.18225382126490E+00
 0.11676557932000E+02 0.46828459437429E+00
 0.35930506482000E+01 0.44575817336002E+00
 s    1 1.00
 0.40245147363000E+00 0.10000000000000E+01
 s    1 1.00
 0.13090182668000E+00 0.10000000000000E+01
 p    3 1.00
 0.94680970621000E+01 0.56888332011037E-01
 0.20103545142000E+01 0.31294059336471E+00
 0.54771004707000E+00 0.76065016509135E+00
 p    1 1.00
 0.15268613795000E+00 0.10000000000000E+01
 d    1 1.00
 0.80000000000000E+00 0.10000000000000E+01
 
   10 0
 s    5 1.00
 0.17128415853000E+04 -.54477995804909E-02
 0.25764812677000E+03 -.40627174632423E-01
 0.58458245853000E+02 -.18111962250584E+00
 0.16198367905000E+02 -.46843975563173E+00
 0.50052600809000E+01 -.44616846289231E+00
 s    1 1.00
 0.58731856571000E+00 0.10000000000000E+01
 s    1 1.00
 0.18764592253000E+00 0.10000000000000E+01
 p    3 1.00
 0.13571470233000E+02 -.58848116969522E-01
 0.29257372874000E+01 -.32024624762471E+00
 0.79927750754000E+00 -.75328226520436E+00
 p    1 1.00
 0.21954348034000E+00 0.10000000000000E+01
 d    1 1.00
 0.10000000000000E+01 0.10000000000000E+01
 
   11 0
 s    5 1.00
 0.12384016938000E+04 0.55173650481097E-02
 0.18629004992000E+03 0.41088828555946E-01
 0.42251176346000E+02 0.18225382126490E+00
 0.11676557932000E+02 0.46828459437429E+00
 0.35930506482000E+01 0.44575817336002E+00
 s    1 1.00
 0.40245147363000E+00 0.10000000000000E+01
 s    1 1.00
 0.13090182668000E+00 0.10000000000000E+01
 p    3 1.00
 0.94680970621000E+01 0.56888332011037E-01
 0.20103545142000E+01 0.31294059336471E+00
 0.54771004707000E+00 0.76065016509135E+00
 p    1 1.00
 0.15268613795000E+00 0.10000000000000E+01
 d    1 1.00
 0.80000000000000E+00 0.10000000000000E+01
 
   12 0
 s    5 1.00
 0.91849303010000E+04 -.54729466134731E-02
 0.13815105503000E+04 -.40954402155135E-01
 0.31387147580000E+03 -.18475828956188E+00
 0.88053870623000E+02 -.47567280643953E+00
 0.27039914905000E+02 -.43495153584169E+00
 s    3 1.00
 0.45648731303000E+02 -.91904045808942E-01
 0.49664522326000E+01 0.55698777214497E+00
 0.20116242047000E+01 0.51115468298460E+00
 s    1 1.00
 0.35661077013000E+00 0.10000000000000E+01
 s    1 1.00
 0.13507221477000E+00 0.10000000000000E+01
 p    5 1.00
 0.26198233439000E+03 -.91830546592660E-02
 0.61306894736000E+02 -.65902226525990E-01
 0.19103729887000E+02 -.24587784518735E+00
 0.66567720378000E+01 -.48231471076020E+00
 0.23959635161000E+01 -.38956314351423E+00
 p    1 1.00
 0.61776161679000E+00 0.10000000000000E+01
 p    1 1.00
 0.16993376871000E+00 0.10000000000000E+01
 d    1 1.00
 0.55000000000000E+00 0.10000000000000E+01
 
   13 0
 s    5 1.00
 0.17128415853000E+04 -.54477995804909E-02
 0.25764812677000E+03 -.40627174632423E-01
 0.58458245853000E+02 -.18111962250584E+00
 0.16198367905000E+02 -.46843975563173E+00
 0.50052600809000E+01 -.44616846289231E+00
 s    1 1.00
 0.58731856571000E+00 0.10000000000000E+01
 s    1 1.00
 0.18764592253000E+00 0.10000000000000E+01
 p    3 1.00
 0.13571470233000E+02 -.58848116969522E-01
 0.29257372874000E+01 -.32024624762471E+00
 0.79927750754000E+00 -.75328226520436E+00
 p    1 1.00
 0.21954348034000E+00 0.10000000000000E+01
 d    1 1.00
 0.10000000000000E+01 0.10000000000000E+01
 
   14 0
 s    5 1.00
 0.12384016938000E+04 0.55173650481097E-02
 0.18629004992000E+03 0.41088828555946E-01
 0.42251176346000E+02 0.18225382126490E+00
 0.11676557932000E+02 0.46828459437429E+00
 0.35930506482000E+01 0.44575817336002E+00
 s    1 1.00
 0.40245147363000E+00 0.10000000000000E+01
 s    1 1.00
 0.13090182668000E+00 0.10000000000000E+01
 p    3 1.00
 0.94680970621000E+01 0.56888332011037E-01
 0.20103545142000E+01 0.31294059336471E+00
 0.54771004707000E+00 0.76065016509135E+00
 p    1 1.00
 0.15268613795000E+00 0.10000000000000E+01
 d    1 1.00
 0.80000000000000E+00 0.10000000000000E+01
 
   15 0
 s    5 1.00
 0.12384016938000E+04 0.55173650481097E-02
 0.18629004992000E+03 0.41088828555946E-01
 0.42251176346000E+02 0.18225382126490E+00
 0.11676557932000E+02 0.46828459437429E+00
 0.35930506482000E+01 0.44575817336002E+00
 s    1 1.00
 0.40245147363000E+00 0.10000000000000E+01
 s    1 1.00
 0.13090182668000E+00 0.10000000000000E+01
 p    3 1.00
 0.94680970621000E+01 0.56888332011037E-01
 0.20103545142000E+01 0.31294059336471E+00
 0.54771004707000E+00 0.76065016509135E+00
 p    1 1.00
 0.15268613795000E+00 0.10000000000000E+01
 d    1 1.00
 0.80000000000000E+00 0.10000000000000E+01
 
   16 0
 s    3 1.00
 0.13010701000000E+02 0.33485484812989E-01
 0.19622572000000E+01 0.23472187088125E+00
 0.44453796000000E+00 0.81377028525955E+00
 s    1 1.00
 0.12194962000000E+00 0.10000000000000E+01
 
   17 0
 s    3 1.00
 0.13010701000000E+02 0.33485484812989E-01
 0.19622572000000E+01 0.23472187088125E+00
 0.44453796000000E+00 0.81377028525955E+00
 s    1 1.00
 0.12194962000000E+00 0.10000000000000E+01
 
   18 0
 s    5 1.00
 0.22661767785000E+04 -.53893503921743E-02
 0.34087010191000E+03 -.40234721388960E-01
 0.77363135167000E+02 -.18008184205526E+00
 0.21479644940000E+02 -.46828857657651E+00
 0.66589433124000E+01 -.44692617160187E+00
 s    1 1.00
 0.80975975668000E+00 0.10000000000000E+01
 s    1 1.00
 0.25530772234000E+00 0.10000000000000E+01
 p    3 1.00
 0.17721504317000E+02 0.62630248763161E-01
 0.38635505440000E+01 0.33331138482352E+00
 0.10480920883000E+01 0.74148638308122E+00
 p    1 1.00
 0.27641544411000E+00 0.10000000000000E+01
 d    1 1.00
 0.12000000000000E+01 0.10000000000000E+01
 
   19 0
 s    3 1.00
 0.13010701000000E+02 0.33485484812989E-01
 0.19622572000000E+01 0.23472187088125E+00
 0.44453796000000E+00 0.81377028525955E+00
 s    1 1.00
 0.12194962000000E+00 0.10000000000000E+01
 
   20 0
 s    6 1.00
 0.11328638776000E+06 0.17059195509348E-02
 0.17009626303000E+05 0.13078822297026E-01
 0.38701842567000E+04 0.64998679261222E-01
 0.10930357227000E+04 0.22750201073526E+00
 0.35639721797000E+03 0.46609763303415E+00
 0.12312539643000E+03 0.36803755398505E+00
 s    3 1.00
 0.23674084007000E+03 -.11073269394023E+00
 0.28468661070000E+02 0.63882925336863E+00
 0.11883443722000E+02 0.43625720052379E+00
 s    3 1.00
 0.21269633312000E+02 -.21858987771447E+00
 0.36129226841000E+01 0.71268904872213E+00
 0.16626648969000E+01 0.41206713869943E+00
 s    1 1.00
 0.34823793232000E+00 0.10000000000000E+01
 s    1 1.00
 0.13019031394000E+00 0.10000000000000E+01
 p    5 1.00
 0.15602801881000E+04 0.82285346263297E-02
 0.36847859205000E+03 0.62534001825199E-01
 0.11722978849000E+03 0.25011859443502E+00
 0.42648909248000E+02 0.50824174177944E+00
 0.16087225096000E+02 0.34530946639447E+00
 p    3 1.00
 0.86352810058000E+01 0.32434615308475E+00
 0.35613665502000E+01 0.54454844134613E+00
 0.15292626609000E+01 0.23041603395739E+00
 p    1 1.00
 0.53064294848000E+00 0.10000000000000E+01
 p    1 1.00
 0.15702758965000E+00 0.10000000000000E+01
 d    4 1.00
 0.10485518642000E+03 0.26692250996810E-01
 0.30281143688000E+02 0.15856723863460E+00
 0.10651394267000E+02 0.42983618185783E+00
 0.38699456233000E+01 0.57796993288988E+00
 d    1 1.00
 0.13240876762000E+01 0.10000000000000E+01
 d    1 1.00
 0.38900000000000E+00 0.10000000000000E+01
 
   21 0
 s    3 1.00
 0.13010701000000E+02 0.33485484812989E-01
 0.19622572000000E+01 0.23472187088125E+00
 0.44453796000000E+00 0.81377028525955E+00
 s    1 1.00
 0.12194962000000E+00 0.10000000000000E+01
 
[MO]
 Sym=     1a   
 Ene= -.48307620903906E+03
 Spin= Alpha
 Occup= 2.000000
     1 0.46714391789273E-05
     2 0.77866613577886E-04
     3 -.66809843206377E-03
     4 0.48497724895798E-05
     5 0.21378618286038E-04
     6 -.67482757060032E-07
     7 -.13217625002888E-03
     8 0.39138655309685E-04
     9 -.45222573824520E-07
    10 -.43884276999420E-06
    11 0.27618192563092E-05
    12 -.23229764863150E-05
    13 0.33557726145827E-05
    14 -.12074081254738E-07
    15 -.19835488318456E-07
    16 -.55986814687670E-05
    17 0.14291777522221E-03
    18 -.22872208192917E-02
    19 0.35926409733454E-04
    20 0.39122023198792E-04
    21 -.14309065142068E-06
    22 -.16421366091618E-02
    23 0.67669716733394E-03
    24 -.10234735616321E-05
    25 0.15780624344601E-05
    26 -.54971927662677E-05
    27 0.39191303318075E-05
    28 -.12709225742699E-04
    29 0.39811385750381E-07
    30 0.40284445897095E-07
    31 -.53422697168300E-05
    32 0.24016031160795E-04
    33 0.24831159099340E-02
    34 -.20895028643919E-04
    35 -.12969582364156E-04
    36 0.52193577528756E-07
    37 -.10078771017653E-03
    38 -.10545040224004E-02
    39 0.32236413612832E-05
    40 0.57976061662158E-05
    41 0.16341912497796E-05
    42 -.74317974159953E-05
    43 0.67164330399040E-05
    44 -.30443625558809E-07
    45 -.34844150748172E-07
    46 -.71530579422725E-06
    47 0.41634708653556E-04
    48 -.17233895081465E-02
    49 -.83635791469591E-05
    50 -.14200137421002E-04
    51 0.47920738217958E-07
    52 0.91516105165386E-03
    53 0.22508689809716E-03
    54 -.12779947456413E-05
    55 -.27263789232054E-05
    56 -.20965417072487E-05
    57 0.48229206304540E-05
    58 -.12688686875902E-05
    59 0.89040976699055E-08
    60 0.25835547646165E-07
    61 -.30381958936097E-05
    62 -.81739286783261E-05
    63 0.23012208437248E-02
    64 0.51681631734147E-05
    65 -.26796093346397E-05
    66 0.34606941380782E-08
    67 -.13172060948049E-02
    68 -.21761309619236E-04
    69 0.98227596218120E-06
    70 0.67739441132484E-05
    71 0.38819578012407E-06
    72 -.71621398933724E-05
    73 0.78017532285880E-05
    74 -.36294485092733E-07
    75 -.31031732416862E-07
    76 0.48168949647373E-05
    77 -.26301733620489E-05
    78 -.30836600600392E-02
    79 0.48439803627394E-04
    80 0.60102219200521E-05
    81 -.49714824168468E-07
    82 -.50797709297206E-03
    83 -.14678346806319E-02
    84 0.48325661842737E-05
    85 -.13231284226136E-04
    86 0.62726610927167E-05
    87 0.69586231334197E-05
    88 -.63860252933799E-05
    89 0.35823453760622E-07
    90 0.51335108668762E-08
    91 0.77566317458844E-05
    92 -.98041109312923E-04
    93 0.28393728888324E-02
    94 -.51723446414960E-04
    95 -.26807587214008E-04
    96 0.11512947712903E-06
    97 0.12790738366246E-02
    98 0.72357526634084E-03
    99 -.30337398737249E-05
   100 -.12757381163442E-04
   101 0.12051327153167E-04
   102 0.70605401027520E-06
   103 -.24870010179608E-04
   104 0.84834600525197E-07
   105 -.22367205332826E-07
   106 0.95107919086623E-06
   107 0.90004834666228E-05
   108 -.66225888608061E-04
   109 -.13781513832511E-03
   110 0.30644184058402E-05
   111 0.73640329904933E-06
   112 -.40160460202146E-08
   113 0.20836685015079E-04
   114 0.72274587371586E-05
   115 -.34304874596051E-07
   116 0.45501176530699E-04
   117 0.47995073120079E-04
   118 -.16847588062016E-06
   119 -.28254742113458E-05
   120 0.91034511325514E-06
   121 0.19151290980906E-05
   122 0.11466807609463E-05
   123 -.63483977219668E-09
   124 0.26759732719836E-08
   125 0.90225557034450E-06
   126 -.19982172340131E-04
   127 -.14346929877950E-03
   128 0.72021088591606E-05
   129 -.19331357089631E-05
   130 0.29621254355663E-08
   131 -.15585025999827E-03
   132 0.13180390599562E-03
   133 -.30165258885313E-06
   134 0.11208395301146E-05
   135 -.15937204154534E-05
   136 0.47288088533882E-06
   137 -.17865146315029E-06
   138 0.24459012991932E-09
   139 0.67649638854564E-08
   140 0.14390906202628E-05
   141 0.12465707298614E-04
   142 0.24694213860743E-03
   143 0.93181721861779E-05
   144 0.12335199532055E-05
   145 -.11273967661191E-07
   146 0.31484443166494E-04
   147 0.77824416418020E-04
   148 -.26842189944142E-06
   149 -.16028294041653E-05
   150 0.21401158741929E-05
   151 -.53728647002756E-06
   152 0.79482177370398E-06
   153 -.83648747169530E-09
   154 -.10588239971599E-07
   155 -.48287801137711E-06
   156 0.32487511380150E-05
   157 0.17386828281032E-03
   158 -.38862832865139E-06
   159 0.49309963752903E-06
   160 -.19221914691058E-08
   161 -.13412799287558E-03
   162 -.19123577937645E-04
   163 0.14487574425507E-06
   164 0.11906939345189E-05
   165 -.76423204204954E-06
   166 -.42646189246932E-06
   167 -.46103970559256E-06
   168 0.83517096411173E-10
   169 0.15540557492571E-08
   170 -.12311130408071E-07
   171 -.10702781683806E-06
   172 0.19122416432785E-05
   173 -.22881221369901E-04
   174 0.23802168312585E-06
   175 0.14579192391801E-06
   176 -.62021781516640E-09
   177 0.13651770467521E-05
   178 0.77836921143298E-06
   179 -.33288585543503E-08
   180 0.40611978235477E-05
   181 -.94505335249819E-05
   182 0.25382338771611E-07
   183 -.18547697106684E-06
   184 0.32334585447698E-06
   185 -.13786888341014E-06
   186 0.15381739773697E-05
   187 -.45113001180509E-08
   188 -.27415587267515E-08
   189 -.85081637381421E-07
   190 -.23318925075628E-05
   191 0.40392268838900E-04
   192 0.85193310084029E-06
   193 -.64946242932329E-06
   194 0.11064250290997E-08
   195 0.13078396234449E-05
   196 -.15682617970430E-04
   197 0.43956342515263E-07
   198 -.85736244892850E-08
   199 0.41196501702376E-06
   200 -.40339139253448E-06
   201 -.17680548008861E-06
   202 0.28461604033238E-09
   203 -.25710870778909E-08
   204 0.28004795458648E-06
   205 -.52276706856710E-05
   206 -.10227342098247E-04
   207 0.60281958932456E-06
   208 -.55332514508527E-06
   209 0.13939095862717E-08
   210 -.87743300427752E-05
   211 -.34958480123571E-05
   212 0.16157254496775E-07
   213 0.18096662676723E-06
   214 -.73063570394151E-07
   215 -.10790305637308E-06
   216 0.38587717462196E-06
   217 -.13657234544142E-08
   218 -.33084454010166E-09
   219 0.93408266523865E-07
   220 -.37545616990294E-05
   221 0.17733603859712E-04
   222 -.30929960430501E-06
   223 -.20639079820947E-06
   224 0.10236537350326E-08
   225 -.49398019423217E-05
   226 0.64863246347386E-05
   227 -.17519260096369E-07
   228 0.39342700310563E-06
   229 0.57866114680909E-07
   230 -.45129311778654E-06
   231 -.54106716316933E-06
   232 0.96412054566124E-09
   233 -.14049830615652E-08
   234 -.74510156377947E-06
   235 -.55380376450374E-06
   236 -.74559157783389E-06
   237 -.55487577544309E-06
   238 -.23267847145341E-06
   239 -.25125865729779E-05
   240 0.11301884647322E-04
   241 0.75000970825175E-07
   242 0.33119275150569E-07
   243 -.20320087974471E-09
   244 -.20943722195669E-05
   245 -.12980743345823E-05
   246 0.53710032220801E-08
   247 -.19368602641552E-07
   248 -.21892331204581E-07
   249 0.41260933846133E-07
   250 0.48736345733241E-07
   251 -.10020729212186E-09
   252 0.18620560619177E-09
   253 0.68015260469367E-04
   254 0.54021517303131E-04
   255 0.99498562819230E+00
   256 0.15676628595605E-01
   257 -.39104048675099E-02
   258 0.23546788352507E-02
   259 -.12369127206003E-02
   260 0.11538132200053E-04
   261 0.65881751755721E-05
   262 -.27548439350277E-07
   263 -.35568986593059E-04
   264 -.20799593582796E-04
   265 0.86126343143036E-07
   266 0.15726422593167E-03
   267 0.93131234335913E-04
   268 -.38436595923534E-06
   269 -.15098293477348E-03
   270 -.10447102268615E-03
   271 0.41625229415916E-06
   272 -.28889339539961E-05
   273 -.11053725821668E-05
   274 0.39943065361628E-05
   275 -.22950604983062E-05
   276 0.12096922387786E-07
   277 0.19496604893426E-07
   278 0.10173593561755E-04
   279 0.42931111000009E-05
   280 -.14466704661756E-04
   281 0.80038264937022E-05
   282 -.42682282504912E-07
   283 -.71454007175652E-07
   284 -.11915501436183E-04
   285 -.11390375082816E-04
   286 0.23305876518999E-04
   287 -.73812407940323E-05
   288 0.48862205432933E-07
   289 0.12756609395333E-06
   290 -.15446674842010E-03
   291 -.76452993341899E-04
 Sym=     2a   
 Ene= -.88923500896057E+02
 Spin= Alpha
 Occup= 2.000000
     1 -.60157590982614E-05
     2 -.92322677412768E-04
     3 0.97691305892732E-03
     4 0.21497828294465E-04
     5 0.13404891941505E-04
     6 -.54212480454328E-07
     7 0.34667262474161E-04
     8 -.20717062528324E-03
     9 0.62449557204812E-06
    10 -.59908713197313E-05
    11 0.83449633380927E-05
    12 -.23540920183615E-05
    13 0.14810243997466E-05
    14 -.10573296414585E-08
    15 -.39543653058198E-07
    16 0.40175192547485E-05
    17 -.31588510667201E-03
    18 0.88677375117445E-02
    19 0.33219659326269E-04
    20 0.41385815383761E-04
    21 -.14108783370874E-06
    22 0.45210730231246E-02
    23 -.13604674106898E-02
    24 0.12819658724585E-05
    25 0.30199425889273E-04
    26 0.89602389875653E-05
    27 -.39159664876839E-04
    28 0.37014437574124E-04
    29 -.16067741540031E-06
    30 -.19445622902565E-06
    31 0.17257590095758E-04
    32 0.14892174691612E-05
    33 -.12704559178223E-01
    34 -.18868613314318E-03
    35 -.46532824507742E-04
    36 0.26197597245415E-06
    37 0.50601757072913E-03
    38 0.59856485304012E-02
    39 -.18227316422930E-04
    40 -.72629720339567E-04
    41 0.47539553123543E-04
    42 0.25090167216024E-04
    43 -.25823268388851E-04
    44 0.15060367363370E-06
    45 -.62882831933283E-07
    46 0.72619851881120E-04
    47 -.57396407611207E-03
    48 0.12318675639804E-01
    49 0.74678407153713E-04
    50 0.89401800282245E-06
    51 -.49846034728253E-07
    52 -.69163138848172E-02
    53 -.22088355766960E-02
    54 0.11093315979476E-04
    55 -.18893424459245E-03
    56 0.13703393824008E-03
    57 0.51900306352365E-04
    58 -.15652883958199E-03
    59 0.64060195288935E-06
    60 -.19911613945111E-06
    61 -.22731555358165E-04
    62 0.36793988461190E-03
    63 -.90798223281429E-02
    64 -.14914224460759E-03
    65 -.84097516581409E-04
    66 0.35001938559731E-06
    67 0.77141035107393E-02
    68 -.20556570722338E-02
    69 0.10071879291021E-05
    70 0.56778956760787E-04
    71 -.59027273466473E-04
    72 0.22483167056862E-05
    73 0.20952101043755E-04
    74 -.89781808912852E-07
    75 0.19934460916057E-06
    76 -.19265968071357E-04
    77 0.10083183850384E-03
    78 0.10451816966397E-01
    79 0.77410198716025E-04
    80 0.39353282046289E-04
    81 -.16171678088828E-06
    82 0.79204840659377E-03
    83 0.45902433238441E-02
    84 -.14655857187930E-04
    85 0.93311453958042E-05
    86 0.13454793751064E-04
    87 -.22785939146869E-04
    88 0.10668519933279E-04
    89 -.56597418413284E-07
    90 -.13869833213108E-06
    91 0.36977542111238E-05
    92 0.75438618408955E-04
    93 -.77995253828662E-02
    94 0.17753418428326E-04
    95 0.36396722255927E-04
    96 -.12136732580616E-06
    97 -.27767646200285E-02
    98 -.13883661462430E-02
    99 0.60522090912972E-05
   100 -.91595401019589E-05
   101 -.92047042853924E-05
   102 0.18364244387351E-04
   103 -.23774452415441E-05
   104 0.29391295393440E-07
   105 0.92744408306984E-07
   106 0.99423516590538E+00
   107 -.21826360765645E-01
   108 0.10679459866220E-01
   109 -.51061062507516E-02
   110 -.10544082344543E-03
   111 -.19316836086854E-03
   112 0.63899748384646E-06
   113 -.37228884185318E-03
   114 -.66907402324546E-03
   115 0.22319178217282E-05
   116 -.18329671227206E-03
   117 0.63629384916404E-03
   118 -.18087599903317E-05
   119 0.52671185272740E-04
   120 -.32210528422636E-04
   121 -.20460656850104E-04
   122 0.12046380176332E-04
   123 -.85336757132699E-07
   124 0.34397160504221E-07
   125 0.22334076655388E-04
   126 0.16174700875845E-03
   127 0.46121632538574E-02
   128 -.10046170457738E-03
   129 -.40327969373371E-04
   130 0.17904879093205E-06
   131 0.79693284901535E-03
   132 -.26490684712428E-02
   133 0.74318016660143E-05
   134 0.13411853183156E-03
   135 -.20400502173783E-03
   136 0.69886489906276E-04
   137 0.11443569273696E-03
   138 -.38908859194161E-06
   139 0.87204289426974E-06
   140 0.72728464596475E-05
   141 0.23893366836023E-03
   142 -.53180854590110E-02
   143 -.29648863015879E-04
   144 0.73370435266124E-04
   145 -.18838479687829E-06
   146 -.29305273024741E-04
   147 -.71826409162000E-03
   148 0.22530301501569E-05
   149 -.57979140532084E-05
   150 0.22315274910492E-04
   151 -.16517360857283E-04
   152 -.29176194795046E-04
   153 0.76908824540843E-07
   154 -.11239889438868E-06
   155 -.32719869733113E-05
   156 0.14895705481491E-03
   157 -.22640474646390E-02
   158 0.64594948800369E-04
   159 -.18034687110761E-03
   160 0.49912812139504E-06
   161 0.25925359416219E-02
   162 0.26304810474669E-02
   163 -.94594611087845E-05
   164 0.42791830212621E-05
   165 0.63493045077303E-05
   166 -.10628487528992E-04
   167 0.66788349613843E-04
   168 -.20811815048072E-06
   169 -.10037802401317E-06
   170 0.31325307984260E-02
   171 -.78385041189059E-04
   172 -.10422947432999E-03
   173 0.17715316731094E-02
   174 -.10103017443044E-04
   175 0.33208051646546E-06
   176 0.51689808966389E-08
   177 -.56965940128827E-04
   178 -.18338560576553E-04
   179 0.89172934899668E-07
   180 -.16044469528641E-03
   181 0.95234334759416E-03
   182 -.27325903713182E-05
   183 -.59867177267958E-05
   184 0.51578280591327E-04
   185 -.45591562864532E-04
   186 -.66806311682354E-04
   187 0.17029909045221E-06
   188 -.29169273168583E-06
   189 -.96897439624414E-05
   190 0.66454745979481E-04
   191 -.24061613731505E-02
   192 -.10549381888061E-03
   193 0.76851286420201E-04
   194 -.16274375603122E-06
   195 0.13377218690297E-03
   196 0.81830958625693E-03
   197 -.25049053331282E-05
   198 -.13913313967323E-04
   199 0.17399697423546E-05
   200 0.12173344224969E-04
   201 0.52791954596184E-07
   202 0.18641187652528E-07
   203 0.34401821626878E-07
   204 -.17255132254084E-04
   205 0.16954011421335E-03
   206 0.78326114258511E-03
   207 -.86514955189321E-04
   208 0.36907423922287E-04
   209 -.56140212516505E-07
   210 -.18635840304981E-03
   211 -.31309731128750E-03
   212 0.10652565781873E-05
   213 0.15560365978351E-04
   214 -.48115015121990E-05
   215 -.10748864466152E-04
   216 -.49245234813433E-05
   217 -.54074800613903E-08
   218 -.17680128670981E-07
   219 -.56552092889116E-06
   220 0.78035306754158E-04
   221 -.10104321830975E-02
   222 0.10130173473440E-04
   223 0.81822146453838E-06
   224 -.97599024718594E-08
   225 0.28336862877975E-03
   226 -.35674194353851E-03
   227 0.88922163473911E-06
   228 -.66352028642823E-05
   229 0.38944366090601E-07
   230 0.65962584981917E-05
   231 0.10913355025149E-04
   232 -.23226400231115E-07
   233 0.15715303134133E-07
   234 0.29475862678083E-04
   235 -.46739536583752E-07
   236 0.29475313233357E-04
   237 -.39940699378058E-07
   238 -.13952309621253E-05
   239 -.81105630243476E-05
   240 0.13942671369727E-04
   241 0.88402527531030E-05
   242 -.16800904795910E-05
   243 0.51182269165300E-09
   244 -.17108852090711E-04
   245 0.40776765113934E-04
   246 -.11539094394602E-06
   247 0.17158102211839E-05
   248 -.13162934830479E-05
   249 -.39951673813610E-06
   250 -.59782835795411E-05
   251 0.16428448404285E-07
   252 0.71221817102651E-08
   253 -.59114868185600E-03
   254 -.40112547736938E-03
   255 0.25861262855725E-05
   256 -.51321603086848E-05
   257 0.44167059173961E-04
   258 -.30016840987497E-03
   259 0.20715772767809E-03
   260 -.54697122120964E-05
   261 -.32354788313651E-05
   262 0.13127577463019E-07
   263 0.20101211157138E-04
   264 0.11956029967989E-04
   265 -.48470322800266E-07