 operating system is UNIX !

 force (missouri) : TURBOMOLE V7.2 ( 21454 ) 4 Oct 2017 at 12:24:43
 Copyright (C) 2017 TURBOMOLE GmbH, Karlsruhe


    2018-02-09 23:20:13.895 



                             T U R B O M O L E   

                          a o f o r c e - program

                        using direct algorithms for

                       SCF level calculations of
                         * harmonic force constants
                         * hyperpolarizabilities
                         * IR and RAMAN intensities
                         * VCD intensities

                       DFT level calculations of
                         * harmonic force constants
                         * IR intensities
                                                   
       Stephan Boecker, Peter Deglmann, Filipp Furche and Marco Haeser
                          Quantum Chemistry Group
                          Universitaet  Karlsruhe
                                   Germany

 
 
 
 
     References :
 
       RI-J implementation:
         Peter Deglmann, Klaus May, Filipp Furche, Reinhart Ahlrichs
                 Chem. Phys. Lett. 384:103 (2004)
 
       Efficiency, technical details:
         Peter Deglmann, Filipp Furche, Reinhart Ahlrichs
                 Chem. Phys. Lett. 362:511 (2002)
 
       Search of lowest eigenvalues by iterative diagonalization:
         Peter Deglmann, Filipp Furche
                 J. Chem. Phys. 117:9535 (2002)
 
       Vibrational circular dichroism implementation:
        Kevin Reiter, Michael Kuehn, Florian Weigend
                 J. Chem. Phys. 146:054102 (2017)  
 
 


              +--------------------------------------------------+
              | Atomic coordinate, charge and isotop information |
              +--------------------------------------------------+

                    atomic coordinates            atom    charge  isotop
        -12.73900999    6.95737902   -0.00692013    o      8.000     0
        -10.81595440    5.61938763   -0.00422396    c      6.000     0
         -8.29992721    6.76320557   -0.00950458    c      6.000     0
         -6.10903286    5.27305734   -0.00619886    c      6.000     0
         -6.20348863    2.60776460    0.00220136    c      6.000     0
         -8.59991928    1.43815616    0.00735567    c      6.000     0
        -10.78825864    2.86837287    0.00420670    c      6.000     0
         -3.00400142    6.28922755   -0.01137445    s     16.000     0
         -2.05076291    3.10470532   -0.00201697    c      6.000     0
         -3.87141415    1.42966838    0.00438864    n      7.000     0
          0.61811767    2.60161308   -0.00218410    c      6.000     0
          1.57549981   -0.60811739    0.00735126    s     16.000     0
          2.37247141    4.34438168   -0.00886897    n      7.000     0
          4.77300412    3.38550441   -0.00753940    c      6.000     0
          4.81693806    0.45485114    0.00192480    c      6.000     0
          5.84088078   -0.22316337    1.68859639    h      1.000     0
          5.83882652   -0.23407369   -1.68156782    h      1.000     0
          6.73311778    4.58978619   -0.01293518    o      8.000     0
         -8.23527695    8.82928170   -0.01597437    h      1.000     0
        -13.97515732    1.24857344    0.01151030    br    35.000     0
         -8.69404343   -0.62513073    0.01386299    h      1.000     0
 
       center of nuclear mass  :   -5.47638447    2.94078235    0.00068062
       center of nuclear charge:   -5.16603470    2.98037346    0.00035606

              +--------------------------------------------------+
              |               basis set information              |
              +--------------------------------------------------+

              we will work with the 1s 3p 5d 7f 9g ... basis set
              ...i.e. with spherical basis functions...

   type   atoms  prim   cont   basis
   ---------------------------------------------------------------------------
    o        2     24     14   def2-SV(P)   [3s2p1d|7s4p1d]
    c       10     24     14   def2-SV(P)   [3s2p1d|7s4p1d]
    s        2     36     18   def2-SV(P)   [4s3p1d|10s7p1d]
    n        2     24     14   def2-SV(P)   [3s2p1d|7s4p1d]
    h        4      4      2   def2-SV(P)   [2s|4s]
    br       1     74     32   def2-SV(P)   [5s4p3d|14s10p6d]
   ---------------------------------------------------------------------------
   total:   21    498    272
   ---------------------------------------------------------------------------

   total number of primitive shells          :   88
   total number of contracted shells         :  120
   total number of cartesian basis functions :  291
   total number of SCF-basis functions       :  272


 symmetry group of the molecule :   c1 

 the group has the following generators :
   c1(z)

    1 symmetry operations found

 there are 1 real representations :   a   

 maximum number of shells which are related by symmetry :  1


 determining totally symmetric integral contributions 
    - equivalent to irreducible tensor elements - 
 which can be formed within each triple of representations :

             representation triple      contributions

              a     a     a               1

 reading cartesian hessian from $hessian,
 file=<hessian>


 actual cartesian coordinates & gradients will be read from $grad 

            ----------------------------
            actual cartesian coordinates
            ----------------------------
    1 o     -12.73900999020897      6.95737901849268     -0.00692012791223
    2 c     -10.81595439565076      5.61938763113801     -0.00422395602299
    3 c      -8.29992721101156      6.76320557043443     -0.00950457685529
    4 c      -6.10903286228450      5.27305734303548     -0.00619886214918
    5 c      -6.20348862816445      2.60776459986295      0.00220135859126
    6 c      -8.59991927610324      1.43815616432153      0.00735567134826
    7 c     -10.78825864070327      2.86837287145420      0.00420669725196
    8 s      -3.00400141947060      6.28922754522856     -0.01137444984924
    9 c      -2.05076290809214      3.10470532294341     -0.00201697395168
   10 n      -3.87141415294021      1.42966838135269      0.00438864362972
   11 c       0.61811767213544      2.60161308062868     -0.00218410455068
   12 s       1.57549980610267     -0.60811739223316      0.00735126098780
   13 n       2.37247140808114      4.34438168193174     -0.00886896889160
   14 c       4.77300412178467      3.38550441179294     -0.00753940403406
   15 c       4.81693806437492      0.45485114352592      0.00192479542605
   16 h       5.84088078151950     -0.22316336841494      1.68859638772354
   17 h       5.83882652293564     -0.23407368715477     -1.68156781928780
   18 o       6.73311778096465      4.58978618577215     -0.01293518222890
   19 h      -8.23527694904131      8.82928170145032     -0.01597436976847
   20 br    -13.97515731510307      1.24857344329905      0.01151030484899
   21 h      -8.69404342989900     -0.62513073219143      0.01386298762972

              --------------------------
              actual cartesian gradients
              --------------------------
    1 o       0.00000773841155      0.00000147261482      0.00000188075543
    2 c      -0.00000433096237      0.00000796383541      0.00000080442613
    3 c       0.00000042858149      0.00000449441184     -0.00000297019741
    4 c       0.00000467766326     -0.00000185539285      0.00000424355149
    5 c       0.00000211114095      0.00000502051061      0.00000050448972
    6 c      -0.00000087409635      0.00000464265700      0.00000116220243
    7 c       0.00000086832383      0.00000689443010     -0.00000120270960
    8 s      -0.00000184329070      0.00000156622397      0.00000252426363
    9 c       0.00000276441662      0.00000004640788      0.00000277101818
   10 n      -0.00000884579686     -0.00000122551425     -0.00001142765775
   11 c      -0.00000500601455     -0.00001123996714     -0.00000534184364
   12 s      -0.00000471243481     -0.00000346466223     -0.00000411920789
   13 n       0.00000590637020      0.00000350357198      0.00000875137131
   14 c      -0.00000257953256     -0.00000729454605      0.00000356456477
   15 c      -0.00000214991182     -0.00000452617742      0.00000304196282
   16 h      -0.00000507664039     -0.00000747342742      0.00000181353781
   17 h      -0.00000245038185     -0.00000795427778     -0.00000113696909
   18 o       0.00000208330651     -0.00000846154659     -0.00000497574463
   19 h       0.00000316678319      0.00000386600032     -0.00000080412751
   20 br     -0.00000229678271      0.00000775835044      0.00000166149417
   21 h      -0.00000467240263      0.00000320430660     -0.00000062885265

 dipole moment read from <control>

                -----------------------
                permanent dipole moment
                -----------------------
             x              y             z
         12.3930081    -10.6686186      0.0096346      (debyes)

 dipole derivatives read from <dipgrad>

        ----------------------------------------------------
        cartesian dipole derivative matrix (debyes/angstrom)
        ----------------------------------------------------

  atom       1 o                              2 c 
            x          y          z          x          y          z
 
  x     -9.071250   3.467675  -0.009620   9.670073  -4.872662   0.010785
  y      5.014096  -3.578937  -0.000419  -5.247888   1.853539   0.000900
  z     -0.023440  -0.045966  -1.817898   0.020187   0.016661   1.032579

  atom       3 c                              4 c 
            x          y          z          x          y          z
 
  x     -2.611752  -0.042215  -0.002456  -0.618096   2.842621  -0.004164
  y     -2.633764   1.823270  -0.008368  -3.305024   0.495441   0.002695
  z     -0.185093   0.027271  -0.633753  -0.102392  -0.002847  -0.255063

  atom       5 c                              6 c 
            x          y          z          x          y          z
 
  x     -4.311944   0.298955   0.003880   2.770241   1.773248  -0.006083
  y      6.418842  -3.257238   0.005033  -1.836688   0.832056   0.002064
  z     -0.242261   0.068702   0.037331   0.001967  -0.006586  -0.318184

  atom       7 c                              8 s 
            x          y          z          x          y          z
 
  x      1.212039   0.570168  -0.001207   1.856608  -2.067856   0.009205
  y      6.166500   0.536521  -0.010820   0.508934  -1.564045   0.002622
  z      0.104091   0.006670  -1.014280  -0.025432   0.063601   0.549955

  atom       9 c                             10 n 
            x          y          z          x          y          z
 
  x     -6.260956   3.006910  -0.010311   3.936278  -2.111419   0.006854
  y      2.175613   0.968841  -0.006715  -3.056840  -1.080296   0.001348
  z      0.010212   0.019954  -0.039494  -0.047920  -0.016998  -0.973927

  atom      11 c                             12 s 
            x          y          z          x          y          z
 
  x      9.573870  -3.386630  -0.000874  -0.487140   0.962541   0.004831
  y     -2.033572   5.819650  -0.018271   0.824122  -2.794980   0.012690
  z      0.237981  -0.149885  -0.000007   0.167590  -0.060657  -0.322313

  atom      13 n                             14 c 
            x          y          z          x          y          z
 
  x     -9.973157   0.060058   0.005755  12.428452   1.648352  -0.006919
  y      1.561993  -3.852819   0.004353   0.775878   5.124829  -0.016993
  z      0.013761  -0.026240  -1.078361  -0.016369  -0.024157   0.864564

  atom      15 c                             16 h 
            x          y          z          x          y          z
 
  x      1.228805   0.394717  -0.009297  -0.475830   0.150354  -0.287464
  y      0.353820  -2.268406   0.011843  -0.052097   0.399031   0.123135
  z      0.132874  -0.073355   0.474048  -0.540397   0.239001  -0.017592

  atom      17 h                             18 o 
            x          y          z          x          y          z
 
  x     -0.537334   0.254268   0.291042  -9.843522  -1.746037  -0.000092
  y      0.170814   0.446110  -0.129667  -3.990443  -3.511308   0.008597
  z      0.610049  -0.343529  -0.013614   0.223236  -0.046137  -1.882481

  atom      19 h                             20 br
            x          y          z          x          y          z
 
  x     -0.093294  -0.026648   0.000651  -3.255290  -1.039448   0.005503
  y      0.017158  -0.169838  -0.000821  -1.762331  -0.800561   0.005105
  z     -0.030574   0.011376   0.561589  -0.184850  -0.007947  -0.465707

  atom      21 h 
            x          y          z
 
  x      0.607700  -0.025697   0.004694
  y     -0.194943  -0.142597  -0.000497
  z      0.193097  -0.060204   0.493322
 

             -----------------------------------
             rotational and vibrational analysis
             -----------------------------------


            ==============================================================
            ATOMIC WEIGHTS (average over the natural occurance of isotops)
            ==============================================================
            ('*' denotes special isotop !)
              1     o                15.99940
              2     c                12.01115
              3     c                12.01115
              4     c                12.01115
              5     c                12.01115
              6     c                12.01115
              7     c                12.01115
              8     s                32.06400
              9     c                12.01115
             10     n                14.00670
             11     c                12.01115
             12     s                32.06400
             13     n                14.00670
             14     c                12.01115
             15     c                12.01115
             16     h                 1.00797
             17     h                 1.00797
             18     o                15.99940
             19     h                 1.00797
             20     br               79.90900
             21     h                 1.00797

          -------------------------------------------------
          CARTESIAN FORCE CONSTANT MATRIX (hartree/bohr**2)
         (translational & rotational space projected out)
          -------------------------------------------------

   ATOM              1 o                           2 c 
                  dx        dy        dz        dx        dy        dz
   1 o     dx  0.5215894
           dy -0.2942688 0.2883360
           dz  0.0007907-0.0008061 0.0285791
   2 c     dx -0.4272655 0.2265317-0.0002353 0.7247350
           dy  0.2457193-0.2534242 0.0003686-0.1655360 0.6467412
           dz -0.0007608 0.0005177-0.0622569 0.0003641-0.0012223 0.1779290
   3 c     dx -0.0918302 0.0194238-0.0001298-0.1608521-0.0601447-0.0002498
           dy  0.0211767 0.0223540 0.0000058-0.0675225-0.1512972 0.0005296
           dz -0.0002998 0.0002691 0.0219312 0.0005915 0.0000825-0.0774504
   4 c     dx -0.0015281-0.0073630 0.0001878-0.0336793 0.0121860-0.0000645
           dy -0.0148498-0.0007281 0.0000428 0.0181952 0.0433988-0.0004205
           dz -0.0002338 0.0003098-0.0019918 0.0002396-0.0001884 0.0111919
   5 c     dx -0.0115276 0.0126031 0.0003027 0.0161507-0.0286747 0.0000849
           dy  0.0101193 0.0043279-0.0001125-0.0221746-0.0358750 0.0003877
           dz -0.0006857 0.0002944-0.0017655 0.0005084 0.0002297-0.0007739
   6 c     dx  0.0062265-0.0225508 0.0000180 0.0114645 0.0652244 0.0001001
           dy -0.0044956-0.0046882 0.0007903 0.0333354-0.0137272-0.0001740
           dz -0.0000005 0.0001911 0.0033122-0.0002413-0.0001351 0.0026598
   7 c     dx -0.0065935 0.0569571-0.0003356-0.0985119-0.0352838-0.0000279
           dy  0.0370304-0.0630185 0.0004944-0.0030244-0.2092175 0.0002648
           dz  0.0002764-0.0002218 0.0184104-0.0001636 0.0008633-0.0711358
   8 s     dx  0.0012533 0.0027970-0.0000953-0.0011604-0.0036569-0.0000972
           dy  0.0010477 0.0013107-0.0000064 0.0041940-0.0014159 0.0000213
           dz  0.0000600-0.0000327-0.0008371 0.0004449-0.0001068 0.0056167
   9 c     dx -0.0187615 0.0067295 0.0004793 0.0307927 0.0058651-0.0002132
           dy  0.0031367 0.0021406 0.0004649-0.0067515-0.0104552 0.0001832
           dz -0.0000324 0.0001738 0.0008363-0.0000242 0.0000696-0.0014602
  10 n     dx  0.0142296-0.0090353-0.0005892-0.0260572 0.0068900 0.0000321
           dy -0.0013270-0.0020174-0.0003553 0.0034646 0.0068260 0.0000062
           dz -0.0000331-0.0000194 0.0003166-0.0000696-0.0002846-0.0015141
  11 c     dx  0.0141380-0.0039652-0.0002018-0.0250626-0.0068833-0.0000102
           dy -0.0016508 0.0003229 0.0000278 0.0014953 0.0006947-0.0004274
           dz  0.0007945-0.0005358 0.0013831-0.0006255 0.0002401-0.0031980
  12 s     dx -0.0006889 0.0001727 0.0000251 0.0013137 0.0008265 0.0002436
           dy  0.0018625-0.0009926 0.0000444-0.0031920 0.0001185-0.0000617
           dz  0.0006299-0.0004759-0.0003383-0.0007599 0.0007227 0.0008609
  13 n     dx -0.0095544 0.0036788 0.0000292 0.0156861 0.0009825-0.0001230
           dy -0.0011286 0.0006086 0.0001232 0.0031800 0.0007358 0.0002079
           dz  0.0002758-0.0000069 0.0001156-0.0003539 0.0000064-0.0002223
  14 c     dx  0.0062599-0.0028365-0.0007389-0.0107517 0.0012831-0.0001011
           dy -0.0018892 0.0002347-0.0000469 0.0040048 0.0009182-0.0003990
           dz -0.0001989-0.0000127 0.0002216 0.0001121 0.0001876-0.0005316
  15 c     dx  0.0001660-0.0004874-0.0002126-0.0000557 0.0006932-0.0000203
           dy  0.0011738-0.0003099-0.0001487-0.0019271-0.0003528 0.0000269
           dz  0.0006218-0.0003053-0.0006426-0.0005606 0.0002408 0.0013299
  16 h     dx -0.0001086 0.0000653-0.0000594 0.0002820-0.0001397 0.0002723
           dy -0.0004541 0.0002493 0.0001130 0.0007173-0.0000049-0.0002494
           dz -0.0002149 0.0001851 0.0001980 0.0002672-0.0002692-0.0001141
  17 h     dx -0.0012590 0.0004683 0.0000959 0.0018078-0.0002463-0.0001623
           dy  0.0005841-0.0003051-0.0004842-0.0008769 0.0003388 0.0004361
           dz -0.0012396 0.0007699-0.0001010 0.0006651-0.0009906 0.0000688
  18 o     dx -0.0020924 0.0014710 0.0007538 0.0035099-0.0016632 0.0004440
           dy -0.0022733 0.0017044 0.0005314 0.0024632-0.0016769-0.0000656
           dz  0.0002499-0.0002378 0.0001434 0.0002671 0.0002990-0.0002611
  19 h     dx  0.0015140 0.0039331 0.0000496 0.0056206-0.0296431 0.0000029
           dy  0.0006922 0.0032160-0.0002208 0.0049335-0.0114148 0.0001564
           dz -0.0001767 0.0000231-0.0044302-0.0005979-0.0001072 0.0092316
  20 br    dx  0.0054828 0.0040710-0.0001010-0.0236753-0.0070330 0.0002245
           dy -0.0002103 0.0017777-0.0000250-0.0337288-0.0127346 0.0001575
           dz -0.0000971 0.0001643-0.0025506 0.0000546-0.0001447 0.0040050
  21 h     dx  0.0003500 0.0016043-0.0000331-0.0042914-0.0007653 0.0000620
           dy  0.0000049-0.0010990-0.0008008 0.0022188 0.0018243 0.0001244
           dz  0.0002746-0.0002439-0.0005336 0.0001171 0.0001385 0.0060250

   ATOM              3 c                           4 c 
                  dx        dy        dz        dx        dy        dz
   3 c     dx  0.5689228
           dy -0.0448338 0.7032180
           dz -0.0002304-0.0020607 0.1070235
   4 c     dx -0.2232117 0.1045229-0.0001069 0.5534934
           dy  0.0744401-0.1806092 0.0004080-0.0649304 0.5892528
           dz -0.0003011 0.0004582-0.0440683 0.0000841-0.0016033 0.1085006
   5 c     dx  0.0063780 0.0243823-0.0001115-0.0913617-0.0161484-0.0004246
           dy  0.0585292-0.0332275-0.0001951-0.0395537-0.2682614 0.0007895
           dz  0.0001239-0.0001842 0.0081261 0.0000695 0.0008702-0.0729900
   6 c     dx -0.0226594 0.0045042 0.0001348 0.0013768-0.0463201 0.0001965
           dy  0.0019126-0.0065446 0.0001497-0.0350635-0.0159052 0.0001183
           dz  0.0000820-0.0000192-0.0011843-0.0000525 0.0002242 0.0071991
   7 c     dx  0.0109036-0.0268966 0.0003303-0.0039926 0.0246824-0.0001645
           dy -0.0310016-0.0154931 0.0003735-0.0021198-0.0217314-0.0000379
           dz -0.0001089 0.0000538 0.0098001 0.0001715-0.0000587-0.0017332
   8 s     dx -0.0488847 0.0084245 0.0000314-0.1319573-0.0813680 0.0004814
           dy -0.0020464 0.0182329-0.0001619-0.0179734-0.0787852 0.0000562
           dz -0.0002239-0.0001263-0.0004032 0.0000674-0.0001003-0.0338698
   9 c     dx -0.0166583-0.0141823 0.0002531-0.0478551-0.0056076-0.0003319
           dy -0.0127407 0.0052464-0.0001175 0.0550327-0.0180133-0.0004076
           dz  0.0002055-0.0001599 0.0008019-0.0001713 0.0001232 0.0087865
  10 n     dx  0.0270540-0.0018811-0.0001197-0.0327832 0.0826390 0.0004892
           dy  0.0033842-0.0105649 0.0001157 0.0090578-0.0322811 0.0003011
           dz -0.0000163 0.0000740 0.0033341 0.0002149 0.0001299 0.0107845
  11 c     dx  0.0054256 0.0099402 0.0000728 0.0181805 0.0093895-0.0002450
           dy  0.0005031-0.0005721 0.0003812-0.0013500-0.0067663 0.0004435
           dz -0.0002284 0.0001184-0.0001068-0.0000948 0.0000759 0.0008013
  12 s     dx -0.0001275-0.0010960-0.0000688-0.0012166 0.0002281 0.0002500
           dy  0.0011063 0.0006395-0.0001596-0.0009800 0.0027265 0.0000353
           dz  0.0000084-0.0003405 0.0005136-0.0001119 0.0001807-0.0002628
  13 n     dx -0.0013561-0.0058780 0.0000902-0.0097559-0.0052120 0.0000552
           dy  0.0001075-0.0005815-0.0001954-0.0025446-0.0010675-0.0002555
           dz -0.0000129 0.0000527 0.0000688 0.0000202-0.0000492 0.0015578
  14 c     dx  0.0018505 0.0037728-0.0001821 0.0058160 0.0040144-0.0001575
           dy -0.0010102-0.0010470-0.0002384-0.0021518-0.0014816-0.0002149
           dz  0.0001652-0.0001328 0.0001872-0.0000126 0.0001519 0.0004946
  15 c     dx -0.0000384-0.0005887-0.0001117-0.0011221 0.0006234-0.0000450
           dy  0.0000877 0.0008521 0.0001682 0.0012695-0.0001958 0.0000191
           dz  0.0003040-0.0000755-0.0000165-0.0001758-0.0000511-0.0015764
  16 h     dx -0.0002297-0.0000183 0.0000700-0.0000956 0.0000462-0.0005627
           dy  0.0002286-0.0002694 0.0000217-0.0004471 0.0003568-0.0002085
           dz -0.0000775 0.0001527 0.0001087 0.0001930-0.0000578 0.0001201
  17 h     dx -0.0006371-0.0002649-0.0002498 0.0002459-0.0012740 0.0003740
           dy  0.0011641-0.0004127-0.0000563-0.0010249 0.0003811 0.0003452
           dz  0.0003012 0.0004161-0.0000994 0.0000542 0.0000249 0.0001510
  18 o     dx -0.0003754-0.0013481 0.0000153-0.0022433-0.0021865 0.0001606
           dy -0.0002670-0.0003128 0.0002951-0.0002436-0.0003335 0.0000706
           dz -0.0005449-0.0000607-0.0002213-0.0000190-0.0000588-0.0001991
  19 h     dx -0.0546993-0.0107996 0.0001369 0.0050303 0.0256370-0.0000042
           dy -0.0115766-0.3458997 0.0010745-0.0039094-0.0100710 0.0000763
           dz  0.0008250 0.0011841-0.0298740-0.0000777 0.0003839 0.0028698
  20 br    dx  0.0024047-0.0019256-0.0002816 0.0006246-0.0001108 0.0002244
           dy  0.0025817-0.0052829-0.0003308-0.0001590 0.0004643-0.0001994
           dz  0.0001262 0.0000159 0.0023536-0.0001616-0.0000897-0.0002416
  21 h     dx -0.0013794 0.0005119 0.0000358-0.0039651-0.0018879-0.0000845
           dy  0.0001521 0.0015716 0.0001763-0.0022547-0.0003496 0.0000926
           dz -0.0000175 0.0000985-0.0008245-0.0000138-0.0001263 0.0044760

   ATOM              5 c                           6 c 
                  dx        dy        dz        dx        dy        dz
   5 c     dx  0.7159924
           dy  0.0711547 0.6244761
           dz -0.0005156-0.0017684 0.1404488
   6 c     dx -0.2620968-0.0743739 0.0004799 0.6995238
           dy -0.1088577-0.1714336 0.0002352-0.0259219 0.7428029
           dz -0.0001502 0.0004047-0.0606523 0.0000102-0.0019437 0.1287707
   7 c     dx -0.0544219-0.0182324 0.0000872-0.2970027 0.1548771-0.0005901
           dy  0.0201879 0.0380340-0.0006732 0.1151443-0.2079097 0.0005425
           dz  0.0000346-0.0000188 0.0088508-0.0005087 0.0004056-0.0506141
   8 s     dx -0.0210013-0.0368867 0.0000581 0.0032134 0.0028385 0.0001587
           dy -0.0031801-0.0246642-0.0000748-0.0028625-0.0035099 0.0000580
           dz -0.0003329 0.0005227 0.0086675 0.0003244-0.0004083 0.0034463
   9 c     dx -0.1388659 0.0296407 0.0000301 0.0077862 0.0067250-0.0002905
           dy -0.0423768 0.0013003-0.0003250 0.0157498 0.0034569-0.0002322
           dz -0.0002131-0.0003110 0.0016607-0.0002303 0.0000094 0.0012253
  10 n     dx -0.1732134 0.0630735 0.0001442-0.0580421 0.0071363 0.0005786
           dy  0.0732763-0.1308020 0.0003747-0.0168628 0.0173210-0.0000198
           dz -0.0002491 0.0002382-0.0504609-0.0000965 0.0001661 0.0014864
  11 c     dx  0.0287651-0.0301853 0.0004618-0.0005454 0.0020775 0.0000035
           dy -0.0076481-0.0010139 0.0003331 0.0001446 0.0009015-0.0001718
           dz  0.0003696 0.0002035 0.0051845-0.0000163 0.0000857 0.0004058
  12 s     dx -0.0036401 0.0009820-0.0000939 0.0003622 0.0000924 0.0001184
           dy  0.0043578-0.0034672-0.0000270-0.0005859 0.0001898 0.0000797
           dz  0.0000387-0.0000186-0.0005836-0.0002511 0.0001480-0.0004154
  13 n     dx -0.0141429 0.0145692-0.0001543-0.0006557-0.0019951-0.0000492
           dy -0.0008071 0.0041830-0.0003793-0.0008684-0.0009223 0.0000138
           dz -0.0000455-0.0000060 0.0009311-0.0001077 0.0002026 0.0004254
  14 c     dx  0.0086874-0.0122669 0.0001582-0.0002627 0.0017957 0.0001973
           dy -0.0045899 0.0036644 0.0002236 0.0003192-0.0001168 0.0000674
           dz -0.0000398-0.0000831 0.0003029-0.0003204-0.0000400 0.0003203
  15 c     dx -0.0004180 0.0003726-0.0000148-0.0003517-0.0002598 0.0000241
           dy  0.0014677-0.0012299-0.0000529-0.0001215 0.0000452-0.0001057
           dz -0.0001367-0.0001318-0.0002014-0.0001445 0.0000466 0.0001029
  16 h     dx -0.0001578 0.0005537-0.0000600-0.0000244 0.0001062 0.0000115
           dy -0.0001356-0.0001040 0.0000938 0.0000299-0.0000860 0.0001578
           dz  0.0001248 0.0000587-0.0000145 0.0001263 0.0001359-0.0000670
  17 h     dx -0.0018509 0.0014232 0.0002653 0.0016878 0.0000613-0.0003171
           dy  0.0004742 0.0002501 0.0000756-0.0009530 0.0001708-0.0000276
           dz  0.0004019 0.0000568-0.0000023 0.0000671-0.0001092 0.0000238
  18 o     dx -0.0030806 0.0062706-0.0002889 0.0001740-0.0011399 0.0000241
           dy -0.0000155 0.0015878-0.0000809 0.0002709-0.0005752-0.0000919
           dz  0.0002448-0.0001120-0.0003007 0.0002604-0.0001720-0.0000814
  19 h     dx -0.0041519 0.0005096-0.0002203-0.0009422 0.0000432-0.0000456
           dy  0.0025907 0.0018877 0.0002295 0.0002855 0.0008762 0.0000669
           dz  0.0002296-0.0001226 0.0041793-0.0001656-0.0002718-0.0007039
  20 br    dx -0.0005810 0.0045535-0.0004340-0.0342736-0.0182508 0.0004472
           dy -0.0002721 0.0003919 0.0004233 0.0038707 0.0039290-0.0001208
           dz  0.0002628-0.0000145 0.0032907-0.0000311-0.0003932 0.0015597
  21 h     dx  0.0045380-0.0280783 0.0000808-0.0549586-0.0150171 0.0000814
           dy  0.0022113-0.0100244 0.0001827-0.0141228-0.3442748 0.0010615
           dz  0.0001246 0.0002325 0.0061027 0.0001544 0.0010188-0.0372191

   ATOM              7 c                           8 s 
                  dx        dy        dz        dx        dy        dz
   7 c     dx  0.5720668
           dy -0.1093335 0.5482676
           dz  0.0004857-0.0016227 0.0912865
   8 s     dx -0.0025287 0.0028451-0.0002487 0.2648095
           dy  0.0017697-0.0010937 0.0000662 0.0347242 0.2856308
           dz -0.0002000 0.0001310-0.0006948-0.0002602-0.0007876 0.0388843
   9 c     dx  0.0066179-0.0010005 0.0000978-0.0353221 0.0099828-0.0000089
           dy -0.0030055 0.0073123-0.0000381 0.0268902-0.1205815 0.0003926
           dz  0.0003966-0.0000899 0.0011902-0.0000038 0.0001981-0.0350279
  10 n     dx -0.0011072-0.0086374-0.0001932-0.0105646-0.0394628 0.0003423
           dy  0.0014703-0.0073301-0.0000206 0.0082290-0.0631555 0.0001179
           dz  0.0002596 0.0003549 0.0028341 0.0001181 0.0004122 0.0151897
  11 c     dx -0.0062685 0.0029597 0.0001318-0.0216353 0.0194799 0.0000144
           dy  0.0013315 0.0014487-0.0003647 0.0344038-0.0133218 0.0001087
           dz  0.0000323-0.0001819 0.0005846-0.0003422 0.0000827 0.0016568
  12 s     dx  0.0002970-0.0004901 0.0000748-0.0008395-0.0019924 0.0002067
           dy -0.0001622 0.0002168 0.0000804-0.0032910 0.0008385 0.0000867
           dz  0.0003959-0.0003644-0.0000302 0.0001098-0.0000432 0.0012451
  13 n     dx  0.0012214-0.0010678-0.0000071 0.0101035-0.0033676-0.0004330
           dy  0.0003632-0.0016589 0.0002860 0.0027795-0.0006544-0.0000628
           dz  0.0000172 0.0000695-0.0001895 0.0000242 0.0000264-0.0014421
  14 c     dx  0.0005880-0.0011384-0.0001677-0.0072329 0.0010914-0.0006630
           dy  0.0002855-0.0009368-0.0000254 0.0020834-0.0007789-0.0004124
           dz -0.0000474-0.0000158 0.0001455 0.0001374-0.0000615-0.0010183
  15 c     dx  0.0003151-0.0001327 0.0000009 0.0003070-0.0013903-0.0004058
           dy -0.0000145 0.0003996 0.0000217-0.0011798 0.0009967-0.0000062
           dz  0.0001856-0.0000265-0.0005197 0.0000918-0.0002629 0.0010371
  16 h     dx  0.0000492 0.0001565-0.0000554-0.0002398 0.0000374 0.0004514
           dy -0.0000749-0.0002153-0.0000147 0.0001158-0.0002144-0.0001669
           dz -0.0001735 0.0001174 0.0001190 0.0000258 0.0003082 0.0002691
  17 h     dx -0.0003134 0.0001866 0.0001085-0.0004119-0.0005412-0.0002937
           dy  0.0008037-0.0005344-0.0000470-0.0000353-0.0000425 0.0000612
           dz -0.0003285 0.0002905-0.0000877-0.0002556-0.0000196-0.0001453
  18 o     dx -0.0015540 0.0014838 0.0000634 0.0021950 0.0013377 0.0008125
           dy -0.0012100 0.0008721 0.0000930 0.0003135 0.0010170 0.0003563
           dz -0.0001337-0.0000023 0.0001661 0.0000034 0.0001085-0.0001637
  19 h     dx -0.0038837-0.0003216 0.0000938 0.0014756-0.0002648-0.0000144
           dy -0.0022080-0.0003760-0.0000794 0.0000461 0.0002410-0.0000430
           dz -0.0001058-0.0000735 0.0020969 0.0000264 0.0000596-0.0023633
  20 br    dx -0.1206872-0.0484249 0.0000182-0.0011872 0.0000377 0.0000857
           dy -0.0419830-0.0549095 0.0004006-0.0002979 0.0002251 0.0000709
           dz  0.0000317 0.0002948-0.0148042 0.0002150 0.0000548-0.0003005
  21 h     dx  0.0048064 0.0266984-0.0001042-0.0003916-0.0006210 0.0000263
           dy -0.0041362-0.0121262 0.0002412 0.0002250-0.0002750 0.0004053
           dz -0.0001150 0.0001547 0.0043251-0.0001786-0.0000345 0.0002534

   ATOM              9 c                          10 n 
                  dx        dy        dz        dx        dy        dz
   9 c     dx  0.6756455
           dy  0.0701176 0.4668995
           dz -0.0003557-0.0015741 0.1147637
  10 n     dx -0.1907619-0.1652488 0.0006959 0.5318691
           dy -0.1408100-0.2271316 0.0007729 0.0801221 0.4378890
           dz  0.0002120 0.0007140-0.0514194-0.0003554-0.0011096 0.0682305
  11 c     dx -0.1989477 0.0595671-0.0002904-0.1031050-0.0236506-0.0000887
           dy  0.0459294-0.0973883-0.0000010-0.0243125 0.0078698 0.0002881
           dz  0.0001226 0.0006306-0.0500511-0.0001414-0.0002302 0.0036317
  12 s     dx -0.0129800 0.0296551-0.0002100 0.0072743 0.0005037 0.0000506
           dy  0.0176479-0.0138363 0.0000833-0.0068653 0.0014352 0.0001125
           dz -0.0004231 0.0002959 0.0031238 0.0002183-0.0000432-0.0016232
  13 n     dx -0.0790638-0.0274355 0.0004438 0.0220743 0.0019689-0.0000877
           dy -0.0224734 0.0078329 0.0001816 0.0104161 0.0032918-0.0001140
           dz  0.0000008-0.0002267-0.0009464 0.0002012 0.0001081-0.0003688
  14 c     dx  0.0146226-0.0087070 0.0000461-0.0104185 0.0103599 0.0005661
           dy -0.0158356-0.0036188-0.0001521 0.0080545 0.0017651 0.0000162
           dz  0.0001239-0.0000377 0.0063574 0.0000112 0.0000143-0.0003019
  15 c     dx -0.0005151 0.0028243 0.0001578 0.0006175-0.0007410-0.0000488
           dy  0.0064731-0.0036967 0.0000895-0.0042599-0.0007673-0.0001563
           dz  0.0003678-0.0002281 0.0024006-0.0001394-0.0001105 0.0005327
  16 h     dx  0.0004286 0.0012379 0.0001820 0.0001485-0.0005957 0.0005160
           dy -0.0013286-0.0002128 0.0007196 0.0007910 0.0007581 0.0001113
           dz  0.0006601-0.0002070-0.0003682-0.0000486-0.0001965 0.0001285
  17 h     dx -0.0011600 0.0002053-0.0002262 0.0018250 0.0004670-0.0007812
           dy -0.0010867 0.0006322-0.0004790-0.0001880 0.0002856-0.0001595
           dz -0.0000293 0.0007828-0.0002438-0.0007218-0.0000723 0.0002338
  18 o     dx  0.0068373 0.0025054-0.0001741-0.0018534-0.0101863-0.0003270
           dy  0.0067615 0.0017211 0.0000763-0.0027546-0.0044378-0.0001461
           dz -0.0005769-0.0001394-0.0001529 0.0000009 0.0001627 0.0006504
  19 h     dx -0.0000406 0.0013151-0.0000464-0.0003985 0.0012643 0.0000627
           dy -0.0004497-0.0009342 0.0002512 0.0005318-0.0001869-0.0001140
           dz  0.0000250 0.0000365-0.0006811-0.0000754 0.0000798 0.0002300
  20 br    dx -0.0013643-0.0019001-0.0002165 0.0010207-0.0007360 0.0001822
           dy -0.0019775-0.0006119-0.0000449 0.0016703 0.0000145-0.0002916
           dz -0.0003785-0.0001038 0.0001792 0.0000018 0.0001601 0.0005610
  21 h     dx -0.0004343-0.0000714 0.0000669 0.0021918 0.0013415-0.0000288
           dy -0.0011209-0.0000617 0.0000634 0.0013211 0.0012183-0.0002224
           dz  0.0002354 0.0001366-0.0009748-0.0003316-0.0000555-0.0024558

   ATOM             11 c                          12 s 
                  dx        dy        dz        dx        dy        dz
  11 c     dx  0.7215222
           dy  0.1121934 0.4964105
           dz -0.0006886-0.0016886 0.1063780
  12 s     dx -0.0492192 0.0279076-0.0000101 0.2374521
           dy  0.0076485-0.1255211 0.0003309 0.0224178 0.2684032
           dz  0.0004995 0.0001114-0.0262977-0.0004981-0.0005982 0.0362651
  13 n     dx -0.2538485-0.1799800 0.0007142 0.0073250-0.0209259-0.0001788
           dy -0.1592455-0.2669771 0.0008507 0.0014711-0.0613754 0.0000083
           dz  0.0007006 0.0010391-0.0461708 0.0000383 0.0004347 0.0182797
  14 c     dx -0.0917857-0.0419646 0.0011243-0.0271065-0.0054316-0.0006381
           dy -0.0102261 0.0141843 0.0007678-0.0228382-0.0174048 0.0000087
           dz  0.0001212 0.0003057 0.0021915 0.0000985 0.0001543-0.0062296
  15 c     dx -0.0266699 0.0243101 0.0000294-0.1303001-0.0180141 0.0005878
           dy  0.0112832 0.0001708 0.0001122-0.0370030-0.0542192 0.0000924
           dz -0.0003148-0.0003397 0.0006159-0.0000458-0.0003974-0.0400941
  16 h     dx -0.0039551-0.0024662-0.0014773-0.0163172 0.0055220-0.0139699
           dy -0.0003706-0.0031334-0.0006957-0.0095529 0.0044464-0.0077062
           dz  0.0006895-0.0002042-0.0003581 0.0022062-0.0019032 0.0063511
  17 h     dx -0.0039655-0.0026804 0.0013948-0.0162877 0.0053327 0.0139096
           dy -0.0000035-0.0039291 0.0003965-0.0093723 0.0048481 0.0077196
           dz -0.0007595 0.0008338-0.0004957-0.0017290 0.0020605 0.0066738
  18 o     dx -0.0044492 0.0137847-0.0010088 0.0050765-0.0068312 0.0004498
           dy -0.0013133-0.0021972-0.0006318-0.0014787-0.0071848 0.0001547
           dz -0.0000320-0.0006479 0.0031891-0.0001118-0.0001308 0.0027427
  19 h     dx  0.0002889-0.0000566 0.0001506 0.0000186-0.0000307 0.0000103
           dy -0.0001220-0.0001661-0.0000940-0.0002634 0.0000871 0.0000783
           dz  0.0000627 0.0000935 0.0013803-0.0003803-0.0000759-0.0003201
  20 br    dx  0.0008964 0.0005208-0.0000340-0.0003051 0.0003037-0.0000349
           dy  0.0016454-0.0006308 0.0000543-0.0001473 0.0001424 0.0001656
           dz  0.0000226-0.0000340-0.0001748-0.0001836-0.0001390 0.0000604
  21 h     dx  0.0002408-0.0004151-0.0000647-0.0000911 0.0001107 0.0000077
           dy -0.0002189-0.0003860 0.0001087-0.0000228-0.0000907-0.0000962
           dz -0.0001495-0.0000867-0.0005496 0.0000192-0.0000102 0.0000788

   ATOM             13 n                          14 c 
                  dx        dy        dz        dx        dy        dz
  13 n     dx  0.6422212
           dy  0.1030726 0.4709477
           dz -0.0008072-0.0015151 0.0633777
  14 c     dx -0.2252458 0.0655464 0.0000046 0.9295517
           dy  0.0941560-0.1532943 0.0002070 0.2181521 0.5784626
           dz -0.0002770 0.0001810-0.0673309-0.0011524-0.0013268 0.2109203
  15 c     dx -0.0211263 0.0168931 0.0000628-0.0605648 0.0087097-0.0005978
           dy  0.0232193-0.0268187-0.0000031 0.0232798-0.1200071 0.0002652
           dz  0.0000466 0.0001623 0.0172893-0.0019026-0.0009737-0.0833614
  16 h     dx  0.0021949 0.0008803 0.0002782-0.0022030 0.0027584 0.0016151
           dy  0.0015682-0.0050294-0.0030079 0.0146050-0.0085392 0.0272392
           dz  0.0015309 0.0005060-0.0005822 0.0016032-0.0013863 0.0038315
  17 h     dx  0.0028799 0.0004502-0.0001342-0.0007047 0.0035730-0.0008819
           dy  0.0019009-0.0043195 0.0029328 0.0144353-0.0089839-0.0274805
           dz -0.0017849-0.0002899-0.0002231-0.0002482 0.0018221 0.0029762
  18 o     dx -0.0873187-0.0180086-0.0001222-0.5322643-0.2829619 0.0010576
           dy  0.0015971 0.0344891-0.0000776-0.2870476-0.2827725 0.0009205
           dz  0.0006522 0.0002554 0.0153023 0.0010164 0.0011847-0.0686384
  19 h     dx -0.0001651-0.0001755-0.0000976 0.0003443 0.0000052 0.0002983
           dy  0.0001117 0.0002175-0.0000486 0.0008645 0.0002628 0.0000446
           dz -0.0001517-0.0001296-0.0002719 0.0010365 0.0005843-0.0001154
  20 br    dx -0.0013508-0.0002116 0.0000433 0.0009625 0.0001623-0.0002910
           dy -0.0007835 0.0001861-0.0000684 0.0000740-0.0004932-0.0000861
           dz  0.0004467-0.0000073 0.0000135 0.0004056 0.0002570-0.0003141
  21 h     dx -0.0001222 0.0003034 0.0000139-0.0001425-0.0007611 0.0000788
           dy -0.0001797 0.0002064-0.0000701 0.0001182-0.0000174-0.0001873
           dz  0.0000451 0.0001726 0.0003868-0.0002067 0.0000370-0.0001074

   ATOM             15 c                          16 h 
                  dx        dy        dz        dx        dy        dz
  15 c     dx  0.4498501
           dy -0.0829276 0.3834951
           dz  0.0007481-0.0003103 0.5411299
  16 h     dx -0.1016819 0.0439680-0.1112593 0.1128674
           dy  0.0438652-0.0692216 0.0757184-0.0456572 0.0741265
           dz -0.1070717 0.0735322-0.2278519 0.1132064-0.0781404 0.2388279
  17 h     dx -0.1008545 0.0446580 0.1100265 0.0086033-0.0041363-0.0116342
           dy  0.0448837-0.0700702-0.0741813-0.0050960 0.0044821 0.0079154
           dz  0.1062110-0.0738429-0.2268359 0.0116767-0.0097311-0.0203849
  18 o     dx -0.0078167-0.0299196 0.0022764 0.0004651 0.0003377-0.0011752
           dy -0.0386581-0.0398347 0.0010076-0.0011986 0.0025439-0.0003865
           dz  0.0003776 0.0000750 0.0155424-0.0005766-0.0044078 0.0004233
  19 h     dx  0.0004069-0.0001442 0.0008440-0.0003579 0.0002260-0.0008100
           dy -0.0004872 0.0004715 0.0003924 0.0000291-0.0000082 0.0000315
           dz  0.0003561 0.0000851 0.0006168-0.0000901 0.0001538-0.0003724
  20 br    dx -0.0001053-0.0001092-0.0008845 0.0002942-0.0002679 0.0005517
           dy  0.0003874 0.0001197-0.0001373-0.0001487 0.0001280-0.0001316
           dz  0.0005552-0.0000445-0.0001519-0.0001439 0.0000545-0.0002534
  21 h     dx -0.0000424 0.0007263 0.0000514 0.0000378-0.0000594 0.0000206
           dy  0.0001242 0.0001732-0.0000369-0.0000407-0.0000526-0.0000604
           dz -0.0005823 0.0001830 0.0006542-0.0000248-0.0000547-0.0000105

   ATOM             17 h                          18 o 
                  dx        dy        dz        dx        dy        dz
  17 h     dx  0.1119041
           dy -0.0459224 0.0746042
           dz -0.1121364 0.0784269 0.2377550
  18 o     dx -0.0013168 0.0002955-0.0003109 0.6267421
           dy -0.0023866 0.0026747 0.0001704 0.3274920 0.2929600
           dz  0.0000010 0.0047748 0.0010616-0.0011599-0.0012450 0.0302563
  19 h     dx -0.0000075-0.0000311-0.0000108-0.0003770-0.0000905-0.0002677
           dy  0.0003942-0.0002345-0.0005419-0.0007702-0.0003452-0.0000497
           dz  0.0004057-0.0001964-0.0002443-0.0010821-0.0006313 0.0002072
  20 br    dx -0.0000928 0.0000607 0.0002264-0.0005314-0.0000997 0.0004309
           dy -0.0000004 0.0000837 0.0001170 0.0000038 0.0002092 0.0002033
           dz -0.0002480 0.0002943 0.0005617-0.0006294-0.0003532 0.0003228
  21 h     dx -0.0000918-0.0000121-0.0000491 0.0002733 0.0001388-0.0000821
           dy  0.0002328 0.0000806-0.0001742 0.0000332-0.0001089 0.0002008
           dz  0.0004836-0.0002664-0.0006425 0.0002211 0.0000339 0.0000110

   ATOM             19 h                          20 br
                  dx        dy        dz        dx        dy        dz
  19 h     dx  0.0510401
           dy  0.0100317 0.3635715
           dz -0.0000791-0.0010983 0.0185344
  20 br    dx -0.0008078-0.0005702 0.0000087 0.1726372
           dy -0.0014414-0.0006015 0.0001420 0.0702844 0.0664092
           dz -0.0000456 0.0000146-0.0000052-0.0001544-0.0002146 0.0086722
  21 h     dx  0.0000923-0.0001542 0.0000068 0.0006388 0.0006325-0.0000489
           dy  0.0000341-0.0005933-0.0001190-0.0003543 0.0011836 0.0002280
           dz -0.0000074-0.0001265 0.0000354-0.0000112-0.0000839-0.0027837

   ATOM             21 h 
                  dx        dy        dz
  21 h     dx  0.0527415
           dy  0.0157751 0.3632015
           dz -0.0000369-0.0011175 0.0237530
 

   *** projected hessian written onto $hessian (projected), file=<hessian> ***

 dipole moment in principle axis system (a.u.) :
     4.8802146938    -4.1921282697    -0.0061996387
 norm :   6.43354282825500     

 rotational constants b for rotations around axis of inertia
 and optical intensities for (1 <-- 0) transition

   b   :     0.0323490183     0.0037626881     0.0033727939   (cm**(-1))
   b   :         969.7992         112.8026         101.1138     (MHz)
  int. :    23.8164954576    17.5739394299     0.0000384355     (a.u.)

   x   :     0.9999992196     0.0010636985     0.0006552572
   y   :    -0.0010657519     0.9999944982     0.0031412848
   z   :    -0.0006519122    -0.0031419806     0.9999948515

   ***  normal modes written onto $vibrational normal modes, file=<control>  ***

 keyword $vibrational reduced masses missing in file <control>


   ***  vibrational spectroscopic data written onto$vibrational spectrum   
        file=<control>  ***

          ---------------------------------------------------
          NORMAL MODES and VIBRATIONAL FREQUENCIES (cm**(-1))
          ---------------------------------------------------

 imaginary wave numbers indicate a negative curvature of the energy surface.
 zero frequency modes have no physical meaning except being generators of
 translations and rotations. each vibrational normal mode - given in terms of
 cartesian displacement vectors of all atoms - has been normalized to unity.
 to obtain mass-weigthed normal coordinates in a.u. divide the tabulated
 modes by sqrt(reduced mass * 1822.88853).
 band intensities or cross sections refer to independent non-degenerate normal
 modes, that is, the intensities of degenerate modes have yet to be added.
 dDIP/dQ is the normal mode derivative of the dipole moment.


       mode               1        2        3        4        5        6

     frequency           0.00     0.00     0.00     0.00     0.00     0.00

     symmetry                                                             

        IR                -        -        -        -        -        - 
|dDIP/dQ|   (a.u.)     0.0000   0.0000   0.0000   0.0000   0.0000   0.0000
intensity (km/mol)       0.00     0.00     0.00     0.00     0.00     0.00
intensity (  %   )       0.00     0.00     0.00     0.00     0.00     0.00
 
       RAMAN              -        -        -        -        -        - 
 
  1   o           x  -0.06964  0.12211  0.06311  0.06734  0.15910 -0.00472
                  y  -0.32293  0.02149  0.04729 -0.07278  0.03363 -0.02207
                  z  -0.17720 -0.07642 -0.25569  0.31894 -0.02145  0.11711
  2   c           x  -0.04327  0.12979  0.06382  0.07767  0.13339 -0.00292
                  y  -0.28492  0.03259  0.04839 -0.05810 -0.00331 -0.01966
                  z  -0.13211 -0.04277 -0.21876  0.23681 -0.01615  0.03163
  3   c           x  -0.06580  0.12328  0.06319  0.06878  0.15537 -0.00443
                  y  -0.23542  0.04711  0.04950 -0.03862 -0.05167 -0.01583
                  z  -0.14392 -0.00217 -0.27851  0.21810 -0.01548  0.14102
  4   c           x  -0.03642  0.13183  0.06399  0.08029  0.12674 -0.00243
                  y  -0.19211  0.05976  0.05077 -0.02190 -0.09376 -0.01310
                  z  -0.09337  0.03612 -0.23772  0.12559 -0.00952  0.04625
  5   c           x   0.01611  0.14707  0.06543  0.10094  0.07551  0.00112
                  y  -0.19377  0.05923  0.05103 -0.02288 -0.09192 -0.01387
                  z  -0.02878  0.03770 -0.13758  0.04589 -0.00387 -0.15830
  6   c           x   0.03915  0.15374  0.06608  0.11003  0.05304  0.00267
                  y  -0.24092  0.04540  0.04998 -0.04144 -0.04587 -0.01753
                  z  -0.01557 -0.00087 -0.07767  0.06125 -0.00434 -0.26861
  7   c           x   0.01095  0.14553  0.06531  0.09898  0.08052  0.00075
                  y  -0.28417  0.03276  0.04872 -0.05815 -0.00383 -0.02026
                  z  -0.06463 -0.03905 -0.11624  0.15188 -0.01017 -0.17840
  8   s           x  -0.05643  0.12605  0.06342  0.07238  0.14627 -0.00377
                  y  -0.13098  0.07768  0.05219  0.00210 -0.15343 -0.00848
                  z  -0.09827  0.08669 -0.29670  0.09037 -0.00783  0.15102
  9   c           x   0.00633  0.14427  0.06514  0.09703  0.08507  0.00048
                  y  -0.11195  0.08319  0.05304  0.00914 -0.17172 -0.00790
                  z  -0.01424  0.10635 -0.18427 -0.02764  0.00025 -0.08406
 10   n           x   0.03933  0.15384  0.06606  0.11003  0.05288  0.00270
                  y  -0.14771  0.07269  0.05233 -0.00504 -0.13673 -0.01087
                  z   0.01504  0.07798 -0.10939 -0.04008  0.00159 -0.22798
 11   c           x   0.01626  0.14718  0.06541  0.10089  0.07540  0.00117
                  y  -0.05930  0.09860  0.05442  0.02964 -0.22300 -0.00426
                  z   0.01523  0.15144 -0.18357 -0.10011  0.00467 -0.09922
 12   s           x   0.07952  0.16555  0.06714  0.12574  0.01372  0.00545
                  y  -0.04018  0.10414  0.05527  0.03669 -0.24138 -0.00368
                  z   0.09991  0.17120 -0.07022 -0.21899  0.01281 -0.33619
 13   n           x  -0.01808  0.13723  0.06445  0.08737  0.10890 -0.00115
                  y  -0.02485  0.10872  0.05508  0.04331 -0.25672 -0.00136
                  z  -0.01613  0.17863 -0.26052 -0.08418  0.00310  0.04930
 14   c           x   0.00083  0.14274  0.06496  0.09476  0.09047  0.00015
                  y   0.02254  0.12258  0.05638  0.06170 -0.30285  0.00181
                  z   0.02276  0.21979 -0.24098 -0.16489  0.00817 -0.00304
 15   c           x   0.05858  0.15950  0.06655  0.11746  0.03415  0.00405
                  y   0.02363  0.12284  0.05676  0.06175 -0.30367  0.00114
                  z   0.09474  0.22399 -0.13187 -0.25568  0.01456 -0.22665
 16   h           x   0.06111  0.13530  0.07833  0.15872  0.01901 -0.00975
                  y   0.08510  0.13075  0.12026  0.01790 -0.31970 -0.12638
                  z   0.11791  0.24186 -0.11349 -0.29836  0.01731 -0.26954
 17   h           x   0.08299  0.19155  0.05550  0.08677  0.02302  0.01968
                  y   0.00261  0.12675 -0.00556  0.12121 -0.32694  0.13121
                  z   0.11816  0.24184 -0.11307 -0.29865  0.01733 -0.27039
 18   o           x  -0.02290  0.13588  0.06430  0.08539  0.11362 -0.00145
                  y   0.06107  0.13389  0.05720  0.07692 -0.34052  0.00488
                  z   0.00590  0.25104 -0.29923 -0.16986  0.00802  0.10612
 19   h           x  -0.10652  0.11146  0.06207  0.05278  0.19508 -0.00719
                  y  -0.23430  0.04748  0.04929 -0.03792 -0.05292 -0.01525
                  z  -0.19405 -0.00354 -0.35609  0.28007 -0.01987  0.29950
 20   br          x   0.04286  0.15476  0.06620  0.11157  0.04939  0.00289
                  y  -0.34686  0.01437  0.04733 -0.08284  0.05742 -0.02516
                  z  -0.04548 -0.09027 -0.03417  0.17033 -0.01066 -0.33002
 21   h           x   0.07981  0.16554  0.06719  0.12601  0.01338  0.00542
                  y  -0.24262  0.04486  0.05017 -0.04236 -0.04404 -0.01815
                  z   0.03430  0.00000  0.00000  0.00000  0.00000 -0.42713

reduced mass(g/mol)    19.656   14.083   13.466   13.950   12.511   17.411


       mode               7        8        9       10       11       12

     frequency          46.00    55.40    61.84   100.95   126.53   141.08

     symmetry            a        a        a        a        a        a   

        IR               YES      YES      YES      YES      YES      YES
|dDIP/dQ|   (a.u.)     0.0010   0.0001   0.0007   0.0019   0.0018   0.0006
intensity (km/mol)       1.81     0.02     0.92     6.19     5.64     0.58
intensity (  %   )       0.25     0.00     0.13     0.84     0.77     0.08
 
       RAMAN             YES      YES      YES      YES      YES      YES
 
  1   o           x   0.00343 -0.00726 -0.09050  0.00273 -0.00390  0.00148
                  y   0.00217 -0.00272 -0.04949 -0.00306  0.00419 -0.00343
                  z  -0.09725  0.35235 -0.07787 -0.32240  0.15024  0.17513
  2   c           x   0.00172 -0.00445 -0.04731  0.00212 -0.00137  0.00094
                  y  -0.00064  0.00230  0.00985 -0.00265  0.00322 -0.00226
                  z  -0.10366  0.15821 -0.03640 -0.20636 -0.00772 -0.00869
  3   c           x   0.00390 -0.00771 -0.07822  0.00190 -0.00139  0.00020
                  y  -0.00369  0.00978  0.08898 -0.00386  0.00363 -0.00274
                  z  -0.17724  0.09148 -0.01833  0.03670 -0.10530 -0.14615
  4   c           x   0.00215 -0.00359 -0.03347  0.00085 -0.00036 -0.00031
                  y  -0.00627  0.01671  0.15747 -0.00542  0.00287 -0.00212
                  z  -0.20421 -0.06478  0.00842  0.04076 -0.11822 -0.13110
  5   c           x  -0.00095  0.00230  0.02904 -0.00038 -0.00161  0.00081
                  y  -0.00661  0.01631  0.15633 -0.00651  0.00380 -0.00289
                  z  -0.19113 -0.18841  0.02233 -0.26882 -0.10680 -0.07021
  6   c           x  -0.00258  0.00708  0.07203 -0.00162  0.00010  0.00050
                  y  -0.00352  0.00861  0.07999 -0.00484  0.00360 -0.00365
                  z  -0.11141 -0.17508  0.01967 -0.34704 -0.13218 -0.09886
  7   c           x  -0.00126  0.00374  0.03091  0.00006 -0.00138  0.00181
                  y  -0.00086  0.00141  0.00916 -0.00271  0.00335 -0.00312
                  z  -0.04801 -0.01648 -0.00084 -0.22596 -0.08934 -0.08043
  8   s           x   0.00234 -0.00370 -0.03802  0.00037  0.00018  0.00002
                  y  -0.00876  0.02232  0.21523 -0.00517  0.00092 -0.00101
                  z  -0.15056 -0.10998  0.02349  0.38257 -0.01626 -0.01756
  9   c           x   0.00013  0.00103  0.01818 -0.00028 -0.00084 -0.00017
                  y  -0.00924  0.02367  0.23490 -0.00652  0.00016 -0.00018
                  z  -0.12660 -0.22043  0.03258 -0.03181  0.07292  0.13264
 10   n           x  -0.00095  0.00464  0.04573 -0.00093 -0.00151  0.00088
                  y  -0.00848  0.02067  0.20454 -0.00748  0.00254 -0.00155
                  z  -0.17096 -0.28046  0.03161 -0.34551  0.00095  0.08766
 11   c           x   0.00011 -0.00070 -0.00038  0.00042 -0.00077  0.00004
                  y  -0.00524  0.01454  0.13986 -0.00305 -0.00040  0.00072
                  z  -0.04026 -0.12249  0.01837  0.01108  0.13824  0.17609
 12   s           x   0.01063 -0.02925 -0.26488  0.00683  0.00051 -0.00189
                  y  -0.00318  0.00750  0.05683 -0.00004 -0.00198  0.00075
                  z  -0.31406  0.15635 -0.03959  0.06915  0.13191 -0.13395
 13   n           x  -0.00546  0.01286  0.12978 -0.00275 -0.00012 -0.00097
                  y  -0.00024  0.00013  0.00293  0.00134 -0.00192  0.00293
                  z   0.24443 -0.16393  0.03699 -0.02964  0.12185  0.28949
 14   c           x  -0.00173  0.00480  0.05465 -0.00101  0.00019 -0.00170
                  y   0.00843 -0.02136 -0.20121  0.00618 -0.00223  0.00221
                  z   0.31804  0.04316  0.00343 -0.05525 -0.01220  0.03920
 15   c           x   0.00830 -0.02118 -0.18253  0.00367 -0.00020 -0.00186
                  y   0.00722 -0.02062 -0.20327  0.00584 -0.00226  0.00322
                  z  -0.00018  0.27360 -0.03787  0.07909 -0.27642  0.23892
 16   h           x  -0.09195 -0.13004 -0.22887 -0.02856  0.28516 -0.26161
                  y  -0.17624  0.10254 -0.30486  0.09012 -0.16270  0.12078
                  z  -0.01208  0.39001 -0.05306  0.13382 -0.51932  0.45008
 17   h           x   0.11389  0.07648 -0.24048  0.03720 -0.28525  0.25828
                  y   0.19574 -0.15859 -0.25900 -0.07511  0.15762 -0.10859
                  z  -0.01471  0.39063 -0.05084  0.13341 -0.52092  0.45018
 18   o           x  -0.00609  0.01546  0.15383 -0.00253 -0.00165  0.00088
                  y   0.01752 -0.03944 -0.36409  0.00886 -0.00094 -0.00157
                  z   0.59527  0.06156  0.00183 -0.17069  0.00893 -0.30360
 19   h           x   0.00800 -0.01536 -0.14678  0.00293 -0.00295 -0.00074
                  y  -0.00364  0.01059  0.09124 -0.00352  0.00377 -0.00254
                  z  -0.20712  0.19166 -0.03143  0.20960 -0.08843 -0.16244
 20   br          x  -0.00534  0.01200  0.10466 -0.00325  0.00231  0.00030
                  y   0.00529 -0.01443 -0.12870  0.00548 -0.00273  0.00240
                  z   0.18051  0.00092  0.00924  0.12806  0.01191  0.00444
 21   h           x  -0.00425  0.01462  0.14364 -0.00310 -0.00025  0.00044
                  y  -0.00369  0.00914  0.07718 -0.00595  0.00391 -0.00272
                  z  -0.06386 -0.27910  0.03342 -0.42792 -0.13657 -0.08431

reduced mass(g/mol)    16.773    8.262   13.496   13.863    3.896    6.447


       mode              13       14       15       16       17       18

     frequency         157.59   206.27   208.08   253.49   264.04   284.48

     symmetry            a        a        a        a        a        a   

        IR               YES      YES      YES      YES      YES      YES
|dDIP/dQ|   (a.u.)     0.0014   0.0006   0.0006   0.0011   0.0006   0.0014
intensity (km/mol)       3.70     0.63     0.72     2.21     0.58     3.56
intensity (  %   )       0.50     0.09     0.10     0.30     0.08     0.49
 
       RAMAN             YES      YES      YES      YES      YES      YES
 
  1   o           x   0.05533 -0.05145 -0.05130 -0.40140  0.00397  0.15662
                  y   0.35725  0.13628  0.15410 -0.43912  0.00671 -0.21080
                  z  -0.00766  0.21026 -0.20422 -0.00028 -0.04774 -0.00043
  2   c           x  -0.00801 -0.09189 -0.09600 -0.15610  0.00046  0.17019
                  y   0.26851  0.07985  0.09007 -0.08879  0.00314 -0.16848
                  z  -0.00410 -0.14127  0.13762 -0.00142 -0.04068  0.00138
  3   c           x   0.05282 -0.04968 -0.05185 -0.22156 -0.00026  0.13965
                  y   0.19087  0.06526  0.07262  0.10864  0.00126  0.02191
                  z  -0.00368 -0.33018  0.31668  0.01017  0.30999  0.00488
  4   c           x   0.02230 -0.00847 -0.00766 -0.11296 -0.00162  0.23558
                  y   0.13508  0.09801  0.10488  0.18666 -0.00100  0.21809
                  z   0.00175 -0.02057  0.01579  0.00869  0.19022  0.00574
  5   c           x  -0.08837 -0.02914 -0.03335 -0.04629 -0.00173  0.11514
                  y   0.14072  0.09929  0.10634  0.17887 -0.00007  0.19524
                  z   0.00413  0.09678 -0.09825  0.00297  0.09506  0.00164
  6   c           x  -0.08674 -0.06081 -0.06762  0.05276 -0.00286  0.18660
                  y   0.23118  0.11995  0.13203  0.02922  0.00115  0.00808
                  z   0.00243 -0.05300  0.05557 -0.00209 -0.31273 -0.00855
  7   c           x  -0.04569 -0.11062 -0.12165  0.04901 -0.00255  0.07325
                  y   0.26131  0.06903  0.07926 -0.05113  0.00169 -0.17201
                  z   0.00107 -0.18958  0.19097 -0.00594 -0.34994 -0.00581
  8   s           x   0.08731  0.03384  0.03781 -0.02676 -0.00361  0.37446
                  y  -0.05417  0.05153  0.05178  0.10876 -0.00186  0.15287
                  z   0.00612  0.13825 -0.13039 -0.00514 -0.15249 -0.00370
  9   c           x  -0.11542  0.03952  0.04100 -0.03007 -0.00049  0.06289
                  y  -0.12390  0.01172  0.00900  0.01877 -0.00063  0.06144
                  z   0.00019  0.08858 -0.08757 -0.00482  0.07943  0.00170
 10   n           x  -0.19057 -0.02339 -0.02730 -0.09679 -0.00136  0.04101
                  y  -0.01942  0.07729  0.07979  0.12876 -0.00026  0.12407
                  z   0.00127  0.20441 -0.20482 -0.00177  0.26058  0.00440
 11   c           x  -0.15080  0.08169  0.08716 -0.02231  0.00089 -0.05578
                  y  -0.18516 -0.03438 -0.03673 -0.17940  0.00023 -0.09554
                  z  -0.00297 -0.13784  0.13537 -0.00297 -0.00220  0.00126
 12   s           x  -0.01486  0.16977  0.18519  0.18499  0.00261 -0.12396
                  y  -0.14472 -0.04899 -0.05265 -0.21985  0.00145 -0.08923
                  z  -0.00816 -0.03529  0.02988 -0.00077 -0.01275  0.00207
 13   n           x  -0.24119  0.11145  0.11941 -0.04725  0.00113 -0.14000
                  y  -0.10187 -0.05833 -0.06017 -0.17791  0.00177 -0.04466
                  z  -0.00294 -0.29506  0.29085  0.00312 -0.03649  0.00030
 14   c           x  -0.20717  0.12858  0.13808 -0.00929  0.00123 -0.15303
                  y   0.03414 -0.04463 -0.04522 -0.05833  0.00047  0.03063
                  z   0.00008 -0.05948  0.05868  0.00498 -0.00985 -0.00142
 15   c           x  -0.05951  0.15923  0.17024  0.13965  0.00036 -0.11379
                  y   0.03018 -0.03536 -0.03637 -0.05542  0.00032  0.00468
                  z   0.01468  0.05257 -0.03658  0.00718  0.00823 -0.00244
 16   h           x  -0.04527  0.08571  0.23840  0.16964 -0.01689 -0.10674
                  y   0.08739  0.04906 -0.09203 -0.01072  0.01335  0.01155
                  z   0.02920  0.13148 -0.09966  0.00638  0.02514 -0.00492
 17   h           x  -0.01285  0.24485  0.11141  0.16741  0.01807 -0.10725
                  y   0.06918 -0.10129  0.04013 -0.00376 -0.01288  0.01247
                  z   0.02824  0.13039 -0.10368  0.00217  0.02353 -0.00068
 18   o           x  -0.28556  0.12945  0.14061 -0.09105  0.00536 -0.23779
                  y   0.16075 -0.04195 -0.04379  0.07562 -0.00336  0.15770
                  z  -0.00483  0.13528 -0.14223 -0.00330  0.02219 -0.00117
 19   h           x   0.10421 -0.07462 -0.08128 -0.32511  0.00202 -0.09967
                  y   0.18976  0.06684  0.07481  0.11435  0.00157  0.02892
                  z  -0.00391 -0.43017  0.40727  0.00864  0.54377  0.00179
 20   br          x   0.19706 -0.12424 -0.13505  0.11164 -0.00042 -0.16791
                  y  -0.15773 -0.08936 -0.09863  0.11100 -0.00180 -0.04507
                  z   0.00085  0.01199 -0.01171  0.00015  0.03567  0.00066
 21   h           x  -0.13758 -0.04077 -0.04918  0.17873 -0.00437  0.44764
                  y   0.23523  0.11872  0.12964  0.02506  0.00098 -0.00456
                  z   0.00372 -0.01283  0.02308 -0.00232 -0.48536 -0.01747

reduced mass(g/mol)    16.623   11.852   12.568   14.895    6.848   15.907


       mode              19       20       21       22       23       24

     frequency         331.17   370.60   420.75   457.19   462.16   511.19

     symmetry            a        a        a        a        a        a   

        IR               YES      YES      YES      YES      YES      YES
|dDIP/dQ|   (a.u.)     0.0004   0.0006   0.0017   0.0015   0.0002   0.0022
intensity (km/mol)       0.28     0.67     5.25     3.95     0.09     8.24
intensity (  %   )       0.04     0.09     0.72     0.54     0.01     1.12
 
       RAMAN             YES      YES      YES      YES      YES      YES
 
  1   o           x  -0.00438  0.39655 -0.00097  0.22646 -0.00413  0.23555
                  y  -0.00464  0.23855 -0.00083 -0.07016  0.00008 -0.12213
                  z  -0.12428 -0.00173 -0.05784  0.00044  0.01978  0.00131
  2   c           x  -0.00194  0.16840 -0.00061  0.17965 -0.00372  0.24303
                  y  -0.00004 -0.08650  0.00039 -0.10497  0.00207 -0.05665
                  z   0.22021  0.00359  0.12524 -0.00155 -0.02817 -0.00045
  3   c           x  -0.00191  0.06280  0.00048  0.05644  0.00104  0.04946
                  y   0.00117 -0.13588  0.00035  0.07774 -0.00218  0.25036
                  z   0.17574 -0.00073 -0.12889 -0.00510 -0.05983 -0.00071
  4   c           x  -0.00076 -0.06576 -0.00042 -0.00885  0.00015 -0.08385
                  y   0.00092 -0.13333  0.00076  0.11681 -0.00190  0.17963
                  z  -0.42998 -0.00263  0.14260  0.00295  0.24736 -0.00337
  5   c           x  -0.00052  0.03575 -0.00055 -0.14085  0.00119 -0.19688
                  y   0.00087 -0.12579  0.00008  0.09570 -0.00262  0.16721
                  z  -0.36773 -0.00339  0.06443  0.00251  0.08419 -0.00077
  6   c           x  -0.00012  0.05714 -0.00082 -0.01806 -0.00225 -0.03512
                  y   0.00071 -0.17855 -0.00092 -0.08561  0.00016 -0.08226
                  z  -0.12107 -0.00257 -0.24508  0.00225  0.02368  0.00351
  7   c           x  -0.00036  0.05978 -0.00074  0.01457 -0.00053  0.03445
                  y   0.00013 -0.11326  0.00127 -0.10816  0.00224 -0.08863
                  z   0.26535  0.00533  0.24272  0.00491 -0.02109 -0.00170
  8   s           x   0.00197 -0.36746 -0.00030 -0.02003  0.00058 -0.09986
                  y   0.00003  0.36388 -0.00148  0.04259  0.00064 -0.14109
                  z   0.02866 -0.00024 -0.00763 -0.00061 -0.08979  0.00074
  9   c           x  -0.00000  0.02144  0.00012 -0.16605  0.00190 -0.12510
                  y   0.00061  0.24856 -0.00062 -0.04790  0.00213 -0.04761
                  z   0.35585  0.00245 -0.03745  0.00415  0.25875  0.00163
 10   n           x  -0.00034  0.13863 -0.00113 -0.23607  0.00200 -0.27381
                  y   0.00108  0.14823 -0.00003  0.03598 -0.00185  0.10170
                  z   0.22196  0.00039  0.04953 -0.00732 -0.31748 -0.00079
 11   c           x  -0.00005 -0.04249  0.00041 -0.15684  0.00219 -0.00271
                  y  -0.00010 -0.07905  0.00029  0.01923  0.00127  0.00429
                  z   0.10990  0.00018 -0.02826  0.00977  0.50561  0.00074
 12   s           x   0.00081  0.08181 -0.00036  0.24525 -0.00288 -0.08011
                  y  -0.00051 -0.25043  0.00025  0.10078 -0.00116  0.09300
                  z  -0.03744  0.00080  0.00422 -0.00089 -0.05155 -0.00059
 13   n           x  -0.00071 -0.03025  0.00101 -0.21154  0.00269  0.15256
                  y  -0.00192 -0.16074  0.00018  0.11777 -0.00291 -0.15048
                  z  -0.26357  0.00052  0.01805 -0.00250 -0.17577  0.00042
 14   c           x  -0.00084 -0.03333  0.00156 -0.22945  0.00312  0.22490
                  y  -0.00081 -0.06734  0.00072 -0.01960 -0.00170 -0.05363
                  z  -0.11581  0.00073  0.01133 -0.00692 -0.22960 -0.00007
 15   c           x  -0.00034  0.07841  0.00121 -0.02083  0.00184  0.12033
                  y  -0.00085 -0.09621 -0.00037  0.15927 -0.00386 -0.15800
                  z   0.02342  0.00110 -0.00141 -0.00472 -0.01499  0.00106
 16   h           x  -0.10186  0.09927  0.01166  0.08068 -0.13072  0.01337
                  y   0.13345 -0.06595 -0.01306  0.34286  0.29819 -0.32212
                  z   0.14165  0.00141 -0.01414  0.00606  0.19242  0.00308
 17   h           x   0.10251  0.09952 -0.00757  0.08822  0.13409  0.01281
                  y  -0.13308 -0.06472  0.00914  0.31985 -0.30773 -0.32316
                  z   0.14223 -0.00088 -0.01426  0.00037  0.19483 -0.00231
 18   o           x   0.00030 -0.17585  0.00061  0.02853 -0.00059  0.06836
                  y   0.00040  0.15634  0.00082 -0.47319  0.00806  0.24811
                  z   0.10671 -0.00176 -0.00798  0.00651  0.11631 -0.00120
 19   h           x  -0.00338  0.05821 -0.00038 -0.10658  0.00684 -0.12571
                  y   0.00180 -0.14197 -0.00121  0.07880 -0.00326  0.25080
                  z   0.33201 -0.00572 -0.56099 -0.01028 -0.31408  0.00221
 20   br          x   0.00094 -0.00371  0.00022  0.00808  0.00023 -0.00269
                  y   0.00076 -0.00136  0.00028  0.00070  0.00024 -0.00853
                  z  -0.00973 -0.00012 -0.00277 -0.00017  0.00043 -0.00007
 21   h           x   0.00108  0.03750 -0.00034  0.14750 -0.00385  0.17526
                  y   0.00042 -0.17857 -0.00282 -0.09135 -0.00046 -0.08825
                  z  -0.08880 -0.00881 -0.70714 -0.00702 -0.04351  0.00255

reduced mass(g/mol)    10.043   19.039    3.058   11.718    8.207   10.140


       mode              25       26       27       28       29       30

     frequency         545.92   558.95   576.21   600.57   633.65   663.87

     symmetry            a        a        a        a        a        a   

        IR               YES      YES      YES      YES      YES      YES
|dDIP/dQ|   (a.u.)     0.0033   0.0030   0.0013   0.0016   0.0005   0.0009
intensity (km/mol)      19.77    15.89     3.01     4.52     0.54     1.36
intensity (  %   )       2.70     2.17     0.41     0.62     0.07     0.19
 
       RAMAN             YES      YES      YES      YES      YES      YES
 
  1   o           x  -0.00986  0.12790  0.00215 -0.06224 -0.00145 -0.00088
                  y  -0.13544  0.17796  0.00532 -0.17607  0.00116 -0.00133
                  z   0.00113  0.00017  0.00331 -0.00038 -0.03296  0.08554
  2   c           x   0.15392 -0.14338  0.00017  0.11978  0.00114  0.00240
                  y   0.13491 -0.23658 -0.00288  0.12471  0.00162  0.00118
                  z  -0.00253 -0.00175 -0.01323  0.00432  0.12195 -0.33550
  3   c           x   0.11626 -0.20330 -0.00652  0.22082 -0.00009  0.00085
                  y   0.26481 -0.24204  0.00224  0.03582  0.00357  0.00037
                  z  -0.00252 -0.00029 -0.00849  0.00091  0.04247 -0.05718
  4   c           x  -0.00804 -0.04562 -0.00043  0.04144 -0.00108  0.00028
                  y   0.04492  0.06349  0.00503 -0.14769 -0.00029 -0.00141
                  z  -0.00112  0.00081  0.04554 -0.00081 -0.15716  0.21550
  5   c           x   0.07282 -0.14253  0.00613 -0.17515 -0.00153 -0.00121
                  y   0.04777  0.05200  0.00644 -0.18367 -0.00086 -0.00280
                  z  -0.00052 -0.00042 -0.00775  0.00317  0.07117 -0.24417
  6   c           x   0.09707 -0.09000  0.01176 -0.28732  0.00083 -0.00085
                  y   0.04614 -0.07553  0.00346 -0.10251 -0.00521 -0.00041
                  z   0.00184  0.00052  0.00334  0.00080 -0.00749 -0.02278
  7   c           x   0.14354 -0.17233  0.00407 -0.08640  0.00199  0.00107
                  y   0.08641 -0.18280 -0.00264  0.12290 -0.00142  0.00239
                  z   0.00256  0.00188  0.00957 -0.00448 -0.08773  0.23960
  8   s           x  -0.15364  0.12238 -0.00450  0.09351  0.00037  0.00077
                  y  -0.10800  0.02271 -0.00845  0.20310  0.00021  0.00407
                  z   0.00087 -0.00015 -0.02127 -0.00185  0.07141 -0.01602
  9   c           x   0.06669 -0.05138  0.00271 -0.10148  0.00016 -0.00231
                  y   0.00658 -0.03427  0.00061 -0.02161 -0.00163 -0.00308
                  z  -0.00371 -0.00008  0.15375  0.01298 -0.59098 -0.09891
 10   n           x   0.05373 -0.15641  0.00504 -0.10083  0.00158 -0.00051
                  y   0.02625  0.07136  0.00235 -0.07907  0.00297 -0.00380
                  z   0.00016 -0.00090 -0.06719 -0.00550  0.19337  0.12513
 11   c           x   0.06032  0.01245  0.00100 -0.04420  0.00070 -0.00123
                  y   0.01326 -0.01749  0.00234 -0.02033  0.00337 -0.00303
                  z   0.00031  0.00119  0.01755 -0.00223  0.53646  0.08293
 12   s           x  -0.07710 -0.09340  0.00088 -0.03440 -0.00100 -0.00038
                  y  -0.28830 -0.15449 -0.00160 -0.01766 -0.00106  0.00230
                  z   0.00194  0.00088 -0.02823 -0.00122 -0.05199 -0.00837
 13   n           x  -0.02317  0.02827 -0.00166  0.01255  0.00049 -0.00003
                  y   0.17771  0.05498  0.00257 -0.04034 -0.00005 -0.00465
                  z   0.00294 -0.00265 -0.16176 -0.01215 -0.20502 -0.02030
 14   c           x   0.01259  0.12001 -0.00267  0.08659 -0.00070  0.00151
                  y   0.25032  0.18854  0.00195  0.05175 -0.00105 -0.00074
                  z  -0.01198  0.00189  0.29993  0.02625  0.10270 -0.00453
 15   c           x  -0.14574 -0.05340 -0.00207  0.02229  0.00152 -0.00138
                  y   0.26868  0.17560  0.00234  0.04504  0.00157  0.00079
                  z  -0.00473 -0.00312  0.08179  0.00452  0.04044  0.00405
 16   h           x  -0.07687 -0.04205  0.23560  0.02363  0.12139  0.01444
                  y   0.38377  0.17009 -0.52899 -0.03495 -0.21940 -0.00769
                  z  -0.00132 -0.01390 -0.28053 -0.02562 -0.12315 -0.00786
 17   h           x  -0.05939 -0.03652 -0.23556 -0.00839 -0.11163 -0.01952
                  y   0.34244  0.17550  0.53272  0.05692  0.22895  0.00909
                  z   0.02482  0.00804 -0.28187 -0.02100 -0.12294 -0.00831
 18   o           x   0.23137  0.25859 -0.00269  0.12415 -0.00114  0.00235
                  y  -0.05602  0.03379 -0.00376  0.03550 -0.00162  0.00184
                  z   0.00564  0.00105 -0.10275 -0.00898 -0.02853  0.00343
 19   h           x   0.25960 -0.54786 -0.01958  0.49369 -0.00449  0.00150
                  y   0.26132 -0.23553  0.00235  0.03057  0.00341  0.00368
                  z   0.01137  0.00363 -0.01758 -0.01648 -0.22180  0.81375
 20   br          x  -0.04552  0.05643 -0.00114  0.01055 -0.00012 -0.00015
                  y  -0.02638  0.03445 -0.00010 -0.01049 -0.00012 -0.00024
                  z  -0.00002 -0.00003 -0.00037  0.00015  0.00176 -0.00487
 21   h           x   0.09901  0.04618  0.01803 -0.55563  0.00163 -0.00235
                  y   0.04698 -0.08251  0.00312 -0.09017 -0.00551  0.00079
                  z  -0.00681  0.00395  0.00820  0.00146 -0.00745  0.12860

reduced mass(g/mol)    10.415    9.096    2.967    7.052   10.053    4.603


       mode              31       32       33       34       35       36

     frequency         684.11   699.37   711.72   750.11   813.15   835.52

     symmetry            a        a        a        a        a        a   

        IR               YES      YES      YES      YES      YES      YES
|dDIP/dQ|   (a.u.)     0.0006   0.0006   0.0025   0.0017   0.0019   0.0035
intensity (km/mol)       0.69     0.63    11.46     5.21     6.56    22.28
intensity (  %   )       0.09     0.09     1.56     0.71     0.89     3.04
 
       RAMAN             YES      YES      YES      YES      YES      YES
 
  1   o           x  -0.05543 -0.00195  0.11485  0.01693  0.00443  0.11806
                  y   0.08810  0.00413 -0.19424 -0.07216 -0.00061 -0.05299
                  z  -0.00058 -0.02029 -0.00057 -0.00009  0.00421  0.00041
  2   c           x  -0.00787 -0.00277  0.08068  0.03098 -0.00003  0.05726
                  y   0.11911  0.00127 -0.14369 -0.02494 -0.00479 -0.07598
                  z   0.00323  0.11864  0.01094 -0.00024 -0.01900 -0.00264
  3   c           x  -0.03029 -0.00031  0.10779  0.07439 -0.00682 -0.14280
                  y   0.18726  0.00276 -0.20971 -0.14594  0.01258  0.23395
                  z   0.00367  0.01712 -0.00123  0.00115  0.01429  0.00216
  4   c           x  -0.18389  0.00181  0.13581  0.04330 -0.00247 -0.11110
                  y  -0.05776  0.00488 -0.03579 -0.10427  0.01152  0.10174
                  z   0.02221  0.18837  0.02287 -0.00035 -0.00881 -0.00199
  5   c           x  -0.14764  0.00546 -0.05609  0.00032  0.00410 -0.02304
                  y  -0.12795  0.00067  0.06501  0.01239 -0.00242 -0.04792
                  z  -0.02883 -0.26520 -0.03292  0.00057  0.00710  0.00327
  6   c           x  -0.14188  0.01004 -0.22442 -0.08509  0.00124 -0.17656
                  y  -0.42392 -0.00001  0.35135  0.12323  0.00439  0.00343
                  z   0.00465  0.05019  0.00668 -0.00074 -0.00381 -0.00211
  7   c           x   0.03063  0.00679 -0.28240 -0.09279 -0.00277 -0.17221
                  y  -0.07267 -0.00280  0.10941  0.07332 -0.00321 -0.01951
                  z  -0.00570 -0.10022 -0.00963  0.00014  0.00827  0.00185
  8   s           x   0.14630 -0.00344 -0.04290 -0.02906  0.00542 -0.00946
                  y  -0.13487  0.00552 -0.08497 -0.12034 -0.00055  0.05199
                  z  -0.00116 -0.00768 -0.00041  0.00054  0.00004 -0.00020
  9   c           x   0.08887 -0.00352  0.06498  0.09284 -0.01821  0.23085
                  y   0.29700 -0.01107  0.08899  0.24408  0.00152 -0.16255
                  z   0.00027 -0.01341 -0.00542 -0.00102  0.00154  0.00155
 10   n           x   0.07030 -0.00199 -0.01812  0.09290 -0.00064  0.17624
                  y   0.34038 -0.01251  0.14010  0.35444 -0.03631 -0.12240
                  z   0.00699  0.07408  0.01020 -0.00144 -0.00203 -0.00135
 11   c           x   0.07013 -0.00329  0.08071 -0.04842 -0.00042  0.22590
                  y   0.13876 -0.00963  0.23538 -0.29896  0.07341 -0.13724
                  z  -0.00579 -0.02106  0.00046  0.00135 -0.00105  0.00038
 12   s           x   0.05306 -0.00543  0.05486 -0.05640 -0.14607 -0.02740
                  y  -0.07082  0.00418 -0.09817  0.10491 -0.03653  0.03662
                  z   0.00053  0.00202 -0.00031 -0.00067  0.00053  0.00046
 13   n           x   0.02937 -0.00309  0.07277 -0.06033 -0.02289  0.09151
                  y   0.13828 -0.00935  0.25430 -0.36876  0.09719 -0.01595
                  z   0.00181  0.00650 -0.00096  0.00120  0.00079 -0.00057
 14   c           x  -0.07553  0.00268 -0.04928 -0.01679 -0.05886 -0.05776
                  y  -0.05278  0.00279 -0.04319 -0.01105 -0.05139 -0.05377
                  z  -0.00177  0.00151  0.00176 -0.00079 -0.00194  0.00261
 15   c           x  -0.03048  0.00816 -0.04666  0.06559  0.48037 -0.06703
                  y  -0.07434  0.00883 -0.17856  0.31670  0.05013  0.12520
                  z   0.00150 -0.00271  0.00128  0.00051  0.00052 -0.00455
 16   h           x   0.01104  0.00502 -0.01398  0.08058  0.54685 -0.03875
                  y  -0.01546  0.01548 -0.13396  0.33599  0.22914  0.18692
                  z   0.00038  0.00061 -0.00146 -0.00111  0.03604 -0.00403
 17   h           x   0.00990  0.01288 -0.01636  0.05572  0.54513 -0.01516
                  y  -0.01505  0.00302 -0.13437  0.33012  0.23529  0.18419
                  z   0.00140  0.00228 -0.00036 -0.00558 -0.03826  0.00995
 18   o           x  -0.13610  0.00609 -0.13248  0.04946 -0.06797 -0.10870
                  y  -0.01877 -0.00260  0.01654 -0.06450 -0.07897 -0.03501
                  z   0.00004 -0.00103 -0.00076  0.00049  0.00044  0.00028
 19   h           x   0.07928 -0.00330  0.00371  0.15642 -0.02935 -0.52600
                  y   0.18674  0.00072 -0.21251 -0.15268  0.01331  0.24803
                  z  -0.07100 -0.77942 -0.06304 -0.00146 -0.02706 -0.01312
 20   br          x   0.00762 -0.00056  0.02207  0.00461  0.00028  0.01380
                  y  -0.00177 -0.00027  0.00548  0.00020  0.00028  0.00329
                  z  -0.00001 -0.00009 -0.00008  0.00004  0.00002  0.00001
 21   h           x  -0.29114  0.01842 -0.33231 -0.21317  0.00472 -0.39277
                  y  -0.42311  0.00091  0.36176  0.13077  0.00352  0.00970
                  z   0.05496  0.50128  0.04893 -0.00057 -0.01246  0.00744

reduced mass(g/mol)     9.914    2.570    9.312    9.438    4.733    6.150


       mode              37       38       39       40       41       42

     frequency         860.10   881.04   897.03   905.01   907.38   963.92

     symmetry            a        a        a        a        a        a   

        IR               YES      YES      YES      YES      YES      YES
|dDIP/dQ|   (a.u.)     0.0033   0.0033   0.0018   0.0017   0.0031   0.0083
intensity (km/mol)      19.16    19.58     5.59     5.42    16.61   121.53
intensity (  %   )       2.61     2.67     0.76     0.74     2.27    16.59
 
       RAMAN             YES      YES      YES      YES      YES      YES
 
  1   o           x  -0.00234 -0.10506 -0.07325 -0.00762  0.00163 -0.07586
                  y   0.00140  0.05426  0.04159  0.00422 -0.00054  0.06132
                  z   0.05959 -0.00138 -0.00254  0.00352  0.00515 -0.00107
  2   c           x  -0.00285 -0.07123 -0.04861 -0.00867  0.00210 -0.11010
                  y  -0.00089  0.04768  0.03358  0.00368 -0.00030 -0.03071
                  z  -0.23147  0.00471  0.00653 -0.01385 -0.02166  0.00389
  3   c           x   0.00702  0.15769  0.10885  0.01303 -0.00409  0.21012
                  y  -0.00100 -0.07742 -0.06250 -0.00641  0.00152  0.21597
                  z   0.22640 -0.00706 -0.00420  0.00648  0.01529 -0.00590
  4   c           x   0.00601  0.17917  0.11685  0.01244 -0.00375  0.18311
                  y   0.00012 -0.01150  0.00824  0.00259 -0.00090  0.08893
                  z  -0.08230  0.00165 -0.00063  0.00537  0.00528  0.00113
  5   c           x   0.00011 -0.08163 -0.04551 -0.00118  0.00050  0.05138
                  y   0.00200  0.08122  0.05575  0.00416 -0.00144  0.00956
                  z   0.04001 -0.00425  0.00757 -0.03049 -0.07605 -0.00022
  6   c           x   0.00076  0.00334  0.03925  0.00413 -0.00062 -0.05560
                  y  -0.00066 -0.13667 -0.06365 -0.00618  0.00176 -0.02516
                  z  -0.04150  0.01040 -0.01592  0.06855  0.16732  0.00166
  7   c           x  -0.00281 -0.01150  0.01319  0.00175 -0.00053 -0.38002
                  y  -0.00269 -0.08042 -0.06093 -0.00711  0.00156 -0.33402
                  z   0.08396 -0.00289  0.00242 -0.01471 -0.04099 -0.00052
  8   s           x  -0.00232 -0.08768 -0.02609 -0.00257  0.00144 -0.04269
                  y  -0.00015  0.04462  0.01304  0.00005  0.00027 -0.02981
                  z   0.00405 -0.00041 -0.00005 -0.00097  0.00013  0.00000
  9   c           x   0.00167  0.26698  0.00103 -0.00048 -0.00100 -0.01374
                  y  -0.00255 -0.30443 -0.09188 -0.00461  0.00163  0.11247
                  z   0.00391  0.00146  0.00149  0.00076  0.00054 -0.00105
 10   n           x  -0.00236 -0.14628 -0.14621 -0.01805  0.00330  0.13961
                  y   0.00265  0.24494  0.00313 -0.00129 -0.00199 -0.10355
                  z  -0.00634 -0.00055 -0.00102  0.00493  0.01794  0.00022
 11   c           x   0.00088  0.25698  0.07466  0.00426 -0.00133 -0.12907
                  y  -0.00215 -0.27923  0.15277  0.02051 -0.00140  0.04890
                  z  -0.00274  0.00146 -0.00554  0.01032 -0.00292  0.00008
 12   s           x   0.00396 -0.04332 -0.00283  0.00022  0.00022  0.01075
                  y   0.00110  0.06003 -0.03043 -0.00364  0.00028 -0.00460
                  z   0.00031  0.00050 -0.00912  0.02315 -0.00829 -0.00004
 13   n           x   0.00090 -0.07187  0.27049  0.03177 -0.00265 -0.06440
                  y  -0.00138  0.17222 -0.06530 -0.01054 -0.00017 -0.06035
                  z   0.00169 -0.00270  0.01469 -0.04001  0.01355  0.00137
 14   c           x   0.00241 -0.09712  0.03097  0.00310  0.00041  0.00630
                  y   0.00274  0.15054 -0.23359 -0.02942  0.00263  0.03764
                  z  -0.00226  0.00702 -0.05427  0.15187 -0.05542 -0.00546
 15   c           x  -0.01517  0.05337 -0.10752 -0.01238  0.00007  0.01877
                  y  -0.00267 -0.15532  0.26105  0.02999 -0.00176 -0.03095
                  z   0.00148 -0.00499  0.06383 -0.17207  0.06266  0.00468
 16   h           x  -0.01206 -0.02070  0.23200 -0.57075  0.20478  0.00648
                  y  -0.01307 -0.19704  0.37974  0.15250 -0.04834 -0.06759
                  z  -0.00628  0.02349 -0.09785  0.21447 -0.07999  0.00046
 17   h           x  -0.01593  0.01116 -0.20561  0.58159 -0.20285  0.00122
[...]
intensity (  %   )       8.86     0.08    99.56    12.06     4.31    10.94
 
       RAMAN             YES      YES      YES      YES      YES      YES
 
  1   o           x   0.03357 -0.00133  0.04459 -0.00263 -0.01688  0.00758
                  y  -0.01513  0.00085  0.01101 -0.00535 -0.00157 -0.00470
                  z   0.00004  0.00068  0.00002 -0.00014  0.00004 -0.00042
  2   c           x   0.02311 -0.00097 -0.17142  0.02287  0.03372  0.03682
                  y   0.02483 -0.00005 -0.18643  0.02872  0.03640  0.02668
                  z  -0.00015 -0.00150  0.00043  0.00031  0.00001  0.00049
  3   c           x  -0.01321  0.00193  0.05408 -0.01143  0.00900 -0.07667
                  y   0.02184 -0.00001  0.16510  0.00006  0.06227  0.02736
                  z   0.00047  0.00094 -0.00068 -0.00021 -0.00007  0.00009
  4   c           x  -0.26954  0.00740 -0.05592  0.00777  0.04311  0.00052
                  y  -0.16841  0.00425 -0.02760 -0.02841 -0.11936 -0.08410
                  z   0.00058 -0.00138 -0.00003  0.00000  0.00015  0.00101
  5   c           x  -0.03401 -0.00103  0.16113 -0.00475  0.01824  0.00663
                  y   0.02752  0.00167 -0.19515 -0.01831 -0.12495  0.06825
                  z  -0.00051 -0.00033  0.00044  0.00059  0.00067 -0.00033
  6   c           x   0.06283 -0.00242  0.09366 -0.00494  0.02331 -0.00902
                  y   0.13561 -0.00380  0.09584  0.00114  0.04097 -0.00695
                  z  -0.00044  0.00134 -0.00072 -0.00023 -0.00025  0.00042
  7   c           x  -0.06750  0.00122  0.02836 -0.01556 -0.04473 -0.03060
                  y  -0.08610 -0.00008 -0.03103  0.01322  0.01466 -0.03645
                  z   0.00049  0.00005  0.00016 -0.00013 -0.00018 -0.00008
  8   s           x   0.04471 -0.00105  0.01291  0.00172  0.00563 -0.00125
                  y   0.01931 -0.00062  0.01296  0.00183  0.00951  0.01489
                  z  -0.00002 -0.00005 -0.00021  0.00003 -0.00006  0.00010
  9   c           x  -0.02072 -0.00266  0.08180  0.01578  0.02537  0.07869
                  y  -0.00242  0.00322 -0.07543 -0.00878 -0.03665 -0.32380
                  z   0.00019  0.00341  0.00031  0.00035  0.00029  0.00144
 10   n           x  -0.01568  0.00299 -0.16417 -0.00610 -0.05447  0.16923
                  y   0.00035 -0.00292  0.10981  0.00946  0.06504  0.19554
                  z  -0.00011  0.00078 -0.00024 -0.00026 -0.00029 -0.00054
 11   c           x   0.07267 -0.00033 -0.09476 -0.00928 -0.03768 -0.18157
                  y  -0.04559 -0.00134  0.05458  0.01688  0.02611  0.10662
                  z   0.00048 -0.00080  0.00015 -0.00070 -0.00033 -0.00129
 12   s           x  -0.00302  0.00004 -0.00065 -0.00402  0.00148 -0.00076
                  y   0.00275 -0.00041  0.00157  0.01224 -0.00526 -0.00251
                  z  -0.00071 -0.01316 -0.00073 -0.00038  0.00001 -0.00030
 13   n           x   0.01216 -0.00046  0.04488  0.01191  0.00992 -0.38226
                  y   0.03107  0.00138 -0.03234 -0.04342  0.00010  0.13743
                  z  -0.00173 -0.02103 -0.00024 -0.00014  0.00009 -0.00033
 14   c           x  -0.00088  0.00058 -0.02599 -0.01566 -0.00347  0.31292
                  y  -0.00718  0.00082  0.03210  0.04498 -0.00384 -0.45992
                  z   0.00806  0.11506  0.00168  0.00208 -0.00010  0.00389
 15   c           x  -0.00437  0.00289 -0.00726 -0.07929  0.02912 -0.07213
                  y   0.00842  0.00142 -0.03224 -0.15046  0.04629  0.06649
                  z  -0.00268 -0.03159  0.00214  0.00007 -0.00048 -0.00165
 16   h           x   0.00768  0.34593  0.08918  0.37473 -0.12284  0.19812
                  y   0.03138  0.59406  0.10116  0.56403 -0.17656  0.22480
                  z   0.00119  0.00359 -0.00002  0.01969 -0.00391 -0.08648
 17   h           x  -0.03072 -0.36431  0.04646  0.35106 -0.11518  0.18861
                  y  -0.03324 -0.61517  0.07182  0.53678 -0.18268  0.19176
                  z   0.00072  0.00833 -0.00968 -0.02183  0.00699  0.09454
 18   o           x  -0.01556 -0.00039  0.00890  0.02326 -0.00516  0.10621
                  y  -0.00477 -0.00051  0.00319  0.01482 -0.00506  0.12156
                  z  -0.00156 -0.02044 -0.00048 -0.00038  0.00021 -0.00128
 19   h           x   0.67342 -0.02058  0.34333 -0.18626 -0.74170  0.15384
                  y  -0.00644  0.00095  0.16717  0.00589  0.09266  0.01865
                  z  -0.00643 -0.00158  0.00543  0.00045 -0.00054 -0.00442
 20   br          x   0.00214 -0.00000 -0.00094  0.00018  0.00050  0.00127
                  y   0.00206 -0.00001  0.00178 -0.00022  0.00011  0.00034
                  z  -0.00002 -0.00003  0.00002 -0.00001  0.00001 -0.00005
 21   h           x   0.61498 -0.01535 -0.74497  0.23703  0.53880 -0.20450
                  y   0.11267 -0.00273  0.14084 -0.01165  0.01488  0.00021
                  z   0.00171 -0.00780  0.00046  0.00178  0.00099 -0.00229

reduced mass(g/mol)     2.743    1.184    3.900    1.439    1.663    9.894


       mode              49       50       51       52       53       54

     frequency        1270.86  1302.43  1336.17  1417.92  1430.69  1449.14

     symmetry            a        a        a        a        a        a   

        IR               YES      YES      YES      YES      YES      YES
|dDIP/dQ|   (a.u.)     0.0136   0.0051   0.0047   0.0024   0.0011   0.0051
intensity (km/mol)     327.95    45.98    39.82     9.97     2.18    47.08
intensity (  %   )      44.76     6.27     5.43     1.36     0.30     6.43
 
       RAMAN             YES      YES      YES      YES      YES      YES
 
  1   o           x   0.04380 -0.03958 -0.05296  0.07357 -0.00846  0.00639
                  y  -0.04800 -0.00619  0.05641 -0.02537  0.00195  0.01994
                  z   0.00047  0.00018 -0.00058  0.00018  0.00000  0.00037
  2   c           x   0.08109  0.19563  0.01075 -0.01531  0.00660 -0.05944
                  y   0.13675  0.27645 -0.04037  0.00278 -0.00246 -0.00321
                  z  -0.00128 -0.00070  0.00018  0.00001 -0.00017 -0.00015
  3   c           x  -0.16613 -0.09596  0.02853 -0.35411  0.03711 -0.00784
                  y  -0.09206 -0.07361  0.09895  0.11662 -0.01382  0.02890
                  z   0.00095  0.00024 -0.00028  0.00025  0.00031  0.00024
  4   c           x  -0.06223 -0.00932  0.08719  0.29395 -0.03426  0.02549
                  y   0.03968 -0.03025 -0.26381 -0.10216  0.01713 -0.15688
                  z   0.00027 -0.00015  0.00154  0.00029  0.00009 -0.00003
  5   c           x   0.06619  0.26000 -0.22170  0.02607  0.00425 -0.11073
                  y   0.09577  0.03750  0.18047 -0.05705  0.00188  0.16095
                  z  -0.00039  0.00029 -0.00015 -0.00051 -0.00010 -0.00061
  6   c           x  -0.07709  0.02063  0.01917 -0.09823  0.02154 -0.20683
                  y  -0.08766  0.02575  0.12660  0.01728 -0.01017  0.09259
                  z   0.00001 -0.00087  0.00011 -0.00008  0.00035 -0.00080
  7   c           x  -0.06551 -0.09999  0.15424  0.05471 -0.02219  0.26275
                  y   0.03587 -0.27114 -0.20915 -0.00203  0.01132 -0.13952
                  z  -0.00002  0.00125  0.00048  0.00035 -0.00004  0.00073
  8   s           x   0.00598  0.00029  0.00564 -0.00328  0.00063 -0.00219
                  y   0.00655  0.00118  0.01052  0.00035 -0.00007  0.00266
                  z  -0.00002 -0.00001  0.00002  0.00000  0.00002  0.00007
  9   c           x   0.20956 -0.02559 -0.12501 -0.08801 -0.00751  0.57844
                  y  -0.24986  0.04128 -0.10860  0.03882 -0.01668  0.29224
                  z   0.00056 -0.00044  0.00057 -0.00009  0.00012 -0.00121
 10   n           x   0.06552 -0.14542  0.15791 -0.01881  0.01251 -0.26054
                  y   0.07197  0.00122  0.04817  0.02918  0.00792 -0.27407
                  z  -0.00015 -0.00027 -0.00021  0.00011  0.00004  0.00095
 11   c           x  -0.20747  0.02414  0.03540 -0.01642 -0.01152 -0.06292
                  y   0.31948 -0.05725  0.09007 -0.08334 -0.00406  0.08600
                  z  -0.00080  0.00046 -0.00058  0.00058 -0.00002  0.00014
 12   s           x   0.00486 -0.00111  0.00040  0.00117  0.00207  0.00233
                  y  -0.01771  0.00308 -0.00638  0.00123 -0.00125 -0.00003
                  z  -0.00020  0.00004  0.00040 -0.00001 -0.00004 -0.00021
 13   n           x   0.05659  0.02174  0.04504  0.05654  0.00067 -0.17845
                  y  -0.23202  0.03762 -0.08334  0.05690  0.00925 -0.04664
                  z   0.00035 -0.00029  0.00040 -0.00037 -0.00023  0.00019
 14   c           x  -0.13267  0.00594 -0.06236  0.00096  0.00904  0.05549
                  y   0.20879 -0.01192  0.10499 -0.01425 -0.01568 -0.07383
                  z   0.00227 -0.00026 -0.00075  0.00014 -0.00024 -0.00053
 15   c           x   0.07176 -0.00739  0.01749  0.02335  0.06575  0.02715
                  y   0.00242 -0.00350 -0.02325 -0.01611 -0.04262  0.00112
                  z  -0.00140 -0.00005 -0.00279 -0.00031  0.00011  0.00345
 16   h           x  -0.13786  0.01672 -0.06372 -0.17915 -0.46661 -0.17092
                  y  -0.22829  0.02625 -0.00216  0.11748  0.29427  0.08079
                  z   0.03195 -0.00358  0.05172  0.16668  0.43155  0.14384
 17   h           x  -0.15426  0.01781 -0.02762 -0.18392 -0.46736 -0.19354
                  y  -0.26377  0.02735  0.00761  0.11897  0.29745  0.08906
                  z  -0.02673  0.00215 -0.03569 -0.16544 -0.43039 -0.16140
 18   o           x   0.00464 -0.00618 -0.01357 -0.00708  0.00372  0.03882
                  y  -0.04469  0.00255 -0.02595  0.00380  0.00581  0.02205
                  z  -0.00048  0.00049  0.00025  0.00013  0.00013 -0.00053
 19   h           x   0.52598 -0.24166 -0.35690  0.68895 -0.06300 -0.12530
                  y  -0.12600 -0.07815  0.11967  0.10388 -0.01319  0.03924
                  z  -0.00367 -0.00327 -0.00346 -0.00825 -0.00296 -0.00260
 20   br          x   0.00159  0.00338 -0.00197 -0.00078  0.00026 -0.00297
                  y  -0.00121  0.00183  0.00112 -0.00075  0.00008 -0.00055
                  z  -0.00002 -0.00000  0.00001 -0.00001  0.00000 -0.00008
 21   h           x   0.19548 -0.78428 -0.68113  0.28504 -0.03721  0.12660
                  y  -0.11167  0.05657  0.18569  0.00015 -0.00925  0.10494
                  z   0.00208  0.00386 -0.00462 -0.00029 -0.00182  0.00315

reduced mass(g/mol)     6.572    4.529    4.974    4.175    1.138   10.481


       mode              55       56       57       58       59       60

     frequency        1520.16  1556.31  1607.94  1669.23  1813.51  3060.58

     symmetry            a        a        a        a        a        a   

        IR               YES      YES      YES      YES      YES      YES
|dDIP/dQ|   (a.u.)     0.0019   0.0156   0.0041   0.0201   0.0203   0.0053
intensity (km/mol)       6.23   429.96    29.47   721.06   732.77    50.00
intensity (  %   )       0.85    58.68     4.02    98.40   100.00     6.82
 
       RAMAN             YES      YES      YES      YES      YES      YES
 
  1   o           x  -0.08920  0.02031  0.01827 -0.37706  0.01507 -0.00004
                  y   0.04884 -0.00926 -0.03605  0.26054 -0.01001  0.00004
                  z  -0.00017  0.00003  0.00024 -0.00044 -0.00056 -0.00005
  2   c           x   0.17940 -0.01251  0.06463  0.59034 -0.02532 -0.00008
                  y   0.08957 -0.07660  0.05537 -0.48948  0.01886 -0.00007
                  z  -0.00081  0.00017  0.00002  0.00127 -0.00018  0.00003
  3   c           x  -0.08102 -0.07455 -0.13441 -0.07269  0.00223  0.00019
                  y  -0.10636  0.07960  0.01957  0.05454  0.00087 -0.00143
                  z   0.00100 -0.00006  0.00012  0.00031 -0.00058 -0.00001
  4   c           x   0.03677  0.09596  0.10970 -0.01868  0.00318 -0.00022
                  y   0.36960 -0.11261 -0.07787 -0.04507  0.00895  0.00025
                  z  -0.00102  0.00025  0.00033  0.00037 -0.00018  0.00003
  5   c           x  -0.30862  0.14105 -0.33590  0.09978  0.00023  0.00031
                  y  -0.48637  0.03723  0.00353  0.04661 -0.01623 -0.00014
                  z   0.00221  0.00004 -0.00004  0.00003  0.00031 -0.00001
  6   c           x   0.05098  0.11307  0.51570 -0.05267 -0.00258 -0.00028
                  y   0.26568 -0.10744 -0.07637 -0.02211  0.00577 -0.00035
                  z  -0.00055  0.00022  0.00012  0.00006  0.00017  0.00007
  7   c           x   0.14492 -0.15720 -0.29517 -0.04817  0.00693  0.00006
                  y  -0.24048  0.14707  0.13148  0.11474 -0.00904 -0.00005
                  z   0.00072 -0.00057 -0.00044 -0.00079 -0.00008 -0.00004
  8   s           x  -0.00387 -0.00019  0.00191  0.00265 -0.00192  0.00001
                  y  -0.00781  0.00568 -0.00001  0.00237 -0.00033 -0.00002
                  z   0.00001  0.00009  0.00014  0.00006 -0.00029 -0.00003
  9   c           x   0.03848 -0.13692  0.18342  0.05790  0.01646 -0.00022
                  y  -0.01189  0.05891  0.09604  0.01274 -0.01240  0.00012
                  z   0.00035 -0.00073 -0.00054 -0.00009 -0.00002  0.00002
 10   n           x   0.03402 -0.15277 -0.03953 -0.05258  0.00440 -0.00019
                  y   0.04534 -0.02001 -0.08788 -0.01242  0.01427  0.00007
                  z  -0.00018  0.00025  0.00019  0.00014  0.00033  0.00004
 11   c           x   0.13736  0.61919 -0.11275 -0.06899 -0.07710  0.00005
                  y   0.11572  0.34330 -0.03573 -0.02136 -0.02788  0.00061
                  z  -0.00075 -0.00139  0.00022 -0.00052  0.00134 -0.00005
 12   s           x  -0.00102 -0.00766  0.00185  0.00027 -0.00742 -0.00015
                  y  -0.00218 -0.00659  0.00043 -0.00031  0.00025  0.00017
                  z   0.00003  0.00007 -0.00008 -0.00033 -0.00005  0.00006
 13   n           x  -0.11851 -0.39186  0.03180  0.03447 -0.06396 -0.00120
                  y  -0.08811 -0.28567  0.03022  0.01884 -0.00053 -0.00028
                  z   0.00022  0.00116 -0.00029 -0.00042  0.00008  0.00003
 14   c           x   0.00124  0.03298  0.00306  0.01965  0.74487  0.00064
                  y  -0.00236  0.02790 -0.00443  0.01954  0.38867  0.00025
                  z   0.00079  0.00045  0.00028  0.00083 -0.00149 -0.00026
 15   c           x   0.00625  0.00409 -0.00144 -0.00360 -0.02230  0.05601
                  y   0.00028  0.00698  0.00050 -0.00142 -0.01210 -0.03885
                  z  -0.00083 -0.00048 -0.00132 -0.00095 -0.00212 -0.00671
 16   h           x  -0.05427 -0.12193  0.03486  0.02928  0.00701 -0.30373
                  y   0.01619  0.00084 -0.01530  0.00191  0.09049  0.20248
                  z   0.04502  0.07714 -0.02961 -0.01870  0.02356 -0.54180
 17   h           x  -0.05986 -0.12136  0.04641  0.04683  0.03555 -0.35087
                  y   0.00476 -0.01226 -0.02553 -0.02179  0.08861  0.24320
                  z  -0.04165 -0.07339  0.04223  0.03533 -0.01226  0.62130
 18   o           x   0.01243  0.00998  0.00166 -0.01602 -0.43258  0.00028
                  y  -0.00013 -0.02214  0.00353 -0.00799 -0.27311  0.00035
                  z  -0.00026 -0.00028  0.00004 -0.00019  0.00108  0.00014
 19   h           x   0.34954  0.10006  0.13461  0.36958 -0.00309  0.00249
                  y  -0.12837  0.08717  0.01561  0.01680 -0.00130  0.01471
                  z  -0.00261  0.00186 -0.00411 -0.00215  0.01571 -0.00025
 20   br          x  -0.00287  0.00165  0.00129 -0.00120  0.00011 -0.00001
                  y   0.00025 -0.00001  0.00030 -0.00229  0.00006  0.00001
                  z  -0.00004 -0.00000 -0.00002  0.00003  0.00007  0.00003
 21   h           x   0.08883 -0.10022 -0.60927  0.05535 -0.00122  0.00001
                  y   0.30570 -0.11819 -0.03018 -0.03085  0.00671  0.00310
                  z  -0.00546 -0.00093  0.00277 -0.00069 -0.00234 -0.00205

reduced mass(g/mol)     9.348   11.625    7.667   11.253   12.864    1.060


       mode              61       62       63

     frequency        3107.13  3211.16  3217.57

     symmetry            a        a        a   

        IR               YES      YES      YES
|dDIP/dQ|   (a.u.)     0.0015   0.0021   0.0010
intensity (km/mol)       4.20     7.79     1.62
intensity (  %   )       0.57     1.06     0.22
 
       RAMAN             YES      YES      YES
 
  1   o           x   0.00006  0.00021 -0.00036
                  y  -0.00007 -0.00015  0.00037
                  z   0.00001  0.00012  0.00008
  2   c           x   0.00001 -0.00208  0.00209
                  y   0.00015 -0.00044 -0.00042
                  z  -0.00003 -0.00003 -0.00001
  3   c           x  -0.00010  0.00165 -0.00143
                  y   0.00165  0.06456 -0.05765
                  z  -0.00004 -0.00024  0.00017
  4   c           x   0.00009  0.00222 -0.00207
                  y  -0.00012 -0.00124  0.00089
                  z  -0.00002 -0.00001 -0.00001
  5   c           x  -0.00031 -0.00232 -0.00237
                  y  -0.00001 -0.00147 -0.00005
                  z   0.00003 -0.00006  0.00001
  6   c           x   0.00022  0.00237  0.00260
                  y   0.00063  0.05767  0.06533
                  z  -0.00002 -0.00021 -0.00021
  7   c           x   0.00001  0.00274  0.00299
                  y  -0.00007 -0.00136 -0.00119
                  z   0.00000 -0.00001 -0.00004
  8   s           x   0.00001  0.00003 -0.00001
                  y  -0.00004  0.00009 -0.00007
                  z  -0.00003 -0.00002 -0.00003
  9   c           x  -0.00028  0.00018  0.00059
                  y  -0.00023  0.00038 -0.00015
                  z   0.00017 -0.00006  0.00003
 10   n           x   0.00028 -0.00023  0.00002
                  y   0.00016 -0.00010  0.00008
                  z  -0.00011  0.00005  0.00002
 11   c           x  -0.00001  0.00028 -0.00018
                  y  -0.00002  0.00013  0.00007
                  z   0.00029 -0.00000 -0.00003
 12   s           x  -0.00004  0.00001 -0.00000
                  y  -0.00001  0.00001  0.00001
                  z  -0.00045  0.00001  0.00001
 13   n           x  -0.00001 -0.00014  0.00011
                  y  -0.00011 -0.00010 -0.00001
                  z   0.00011  0.00002  0.00001
 14   c           x  -0.00008 -0.00011  0.00011
                  y   0.00001 -0.00007  0.00009
                  z   0.00004  0.00001  0.00004
 15   c           x   0.00424  0.00067 -0.00045
                  y  -0.00271 -0.00053  0.00027
                  z   0.09572 -0.00179  0.00074
 16   h           x  -0.36765  0.00257 -0.00014
                  y   0.25405 -0.00180  0.00041
                  z  -0.60818  0.00385 -0.00007
 17   h           x   0.31745 -0.01105  0.00485
                  y  -0.21808  0.00702 -0.00363
                  z  -0.52199  0.01807 -0.00844
 18   o           x   0.00012  0.00009 -0.00011
                  y  -0.00000  0.00006 -0.00005
                  z  -0.00022 -0.00001 -0.00003
 19   h           x   0.00179 -0.02429  0.02133
                  y  -0.01870 -0.74530  0.66027
                  z   0.00195  0.00254 -0.00193
 20   br          x  -0.00003 -0.00003 -0.00005
                  y   0.00000 -0.00001 -0.00003
                  z  -0.00001 -0.00001 -0.00001
 21   h           x  -0.00053 -0.03302 -0.03807
                  y  -0.00693 -0.65938 -0.74457
                  z   0.00180  0.00239  0.00223

reduced mass(g/mol)     1.109    1.091    1.092
 

 <geterg> : there is no data group $energy 


         **************************************************************
         *                                                            *
         *  zero point VIBRATIONAL energy  :      0.1227719  Hartree  *
         *                                                            *
         **************************************************************




 time elapsed for vibrational analysis     0.04 sec


    ------------------------------------------------------------------------
         total  cpu-time :   0.07 seconds
         total wall-time :   0.07 seconds
    ------------------------------------------------------------------------

   ****  force : all done  ****


    2018-02-09 23:20:13.960 

