
 egrad (missouri) : TURBOMOLE V7.2 ( 21454 ) 4 Oct 2017 at 12:24:43
 Copyright (C) 2017 TURBOMOLE GmbH, Karlsruhe


    2018-02-09 11:36:11.899 




                               e g r a d

                             TURBOMOLE GmbH


             integral direct evaluation of excited state
                     and polarizability gradients
                 and first-order nonadiabatic couplings



          references (see also programs escf, dscf and ridft) 

          review 
          F. Furche and D. Rappoport,  
          "Density functional methods for excited states: 
          equilibrium structure and electronic spectra",
          ch. III of "Computational Photochemistry", ed. by 
          M. Olivucci, vol. 16 of "Theoretical and Computational 
          Chemistry", Elsevier, Amsterdam, 2005.

          nonorthonormal Krylov space methods 
          F. Furche, B. T. Krull, B. D. Nguyen, J. Kwon, 
          J. Chem. Phys. 144 (2016), 174105.

          RI-J method 
          D. Rappoport and F. Furche, 
          J. Chem. Phys. 122 (2005), 064105.

          Lagrangian method, implementation, benchmarks 
          F. Furche and R. Ahlrichs,
          J. Chem. Phys. 117 (2002), 7433;
          J. Chem. Phys. 121 (2004), 12772 (E).

          Polarizability derivatives, Raman intensities 
          D. Rappoport and F. Furche, 
          J. Chem. Phys. 126 (2007), 201104.

          First-order nonadiabatic couplings 
          R. Send and F. Furche, 
          J. Chem. Phys. 132 (2010), 044107.
                                     




              +--------------------------------------------------+
              | Atomic coordinate, charge and isotop information |
              +--------------------------------------------------+

                    atomic coordinates            atom    charge  isotop
        -12.73900999    6.95737902   -0.00692013    o      8.000     0
        -10.81595440    5.61938763   -0.00422396    c      6.000     0
         -8.29992721    6.76320557   -0.00950458    c      6.000     0
         -6.10903286    5.27305734   -0.00619886    c      6.000     0
         -6.20348863    2.60776460    0.00220136    c      6.000     0
         -8.59991928    1.43815616    0.00735567    c      6.000     0
        -10.78825864    2.86837287    0.00420670    c      6.000     0
         -3.00400142    6.28922755   -0.01137445    s     16.000     0
         -2.05076291    3.10470532   -0.00201697    c      6.000     0
         -3.87141415    1.42966838    0.00438864    n      7.000     0
          0.61811767    2.60161308   -0.00218410    c      6.000     0
          1.57549981   -0.60811739    0.00735126    s     16.000     0
          2.37247141    4.34438168   -0.00886897    n      7.000     0
          4.77300412    3.38550441   -0.00753940    c      6.000     0
          4.81693806    0.45485114    0.00192480    c      6.000     0
          5.84088078   -0.22316337    1.68859639    h      1.000     0
          5.83882652   -0.23407369   -1.68156782    h      1.000     0
          6.73311778    4.58978619   -0.01293518    o      8.000     0
         -8.23527695    8.82928170   -0.01597437    h      1.000     0
        -13.97515732    1.24857344    0.01151030    br    35.000     0
         -8.69404343   -0.62513073    0.01386299    h      1.000     0
 
       center of nuclear mass  :   -5.47638447    2.94078235    0.00068062
       center of nuclear charge:   -5.16603470    2.98037346    0.00035606

              +--------------------------------------------------+
              |               basis set information              |
              +--------------------------------------------------+

              we will work with the 1s 3p 5d 7f 9g ... basis set
              ...i.e. with spherical basis functions...

   type   atoms  prim   cont   basis
   ---------------------------------------------------------------------------
    o        2     24     14   def2-SV(P)   [3s2p1d|7s4p1d]
    c       10     24     14   def2-SV(P)   [3s2p1d|7s4p1d]
    s        2     36     18   def2-SV(P)   [4s3p1d|10s7p1d]
    n        2     24     14   def2-SV(P)   [3s2p1d|7s4p1d]
    h        4      4      2   def2-SV(P)   [2s|4s]
    br       1     74     32   def2-SV(P)   [5s4p3d|14s10p6d]
   ---------------------------------------------------------------------------
   total:   21    498    272
   ---------------------------------------------------------------------------

   total number of primitive shells          :   88
   total number of contracted shells         :  120
   total number of cartesian basis functions :  291
   total number of SCF-basis functions       :  272


 residuum convergence criterium   :  0.10E-04


 integral neglect threshold       :  0.11E-10
 integral storage threshold THIZE :  0.10E-04
 integral storage threshold THIME :         5

 
             FOUND RI-J FLAG !
 
  
 AUXILIARY BASIS SET information:

              we will work with the 1s 3p 5d 7f 9g ... basis set
              ...i.e. with spherical basis functions...

   type   atoms  prim   cont   basis
   ---------------------------------------------------------------------------
    o        2     70     49   def2-SV(P)   [6s4p3d1f1g|12s5p4d2f1g]
    c       10     70     49   def2-SV(P)   [6s4p3d1f1g|12s5p4d2f1g]
    s        2     77     51   def2-SV(P)   [8s4p3d1f1g|14s5p5d2f1g]
    n        2     70     49   def2-SV(P)   [6s4p3d1f1g|12s5p4d2f1g]
    h        4     16     11   def2-SV(P)   [3s1p1d|5s2p1d]
    br       1     89     58   def2-SV(P)   [8s4p3d2f1g|19s5p5d3f1g]
   ---------------------------------------------------------------------------
   total:   21   1287    890
   ---------------------------------------------------------------------------

   total number of primitive shells          :  140
   total number of contracted shells         :  282
   total number of cartesian basis functions : 1101
   total number of SCF-basis functions       :  890

 RPA SINGLET-EXCITATION-CALCULATION 
 
             FOUND DFT-FLAG !
 

 symmetry group of the molecule :   c1 

 the group has the following generators :
   c1(z)

    1 symmetry operations found

 there are 1 real representations :   a   

 maximum number of shells which are related by symmetry :  1

 IRREP of excited state :   a   
 

 determining totally symmetric integral contributions 
    - equivalent to irreducible tensor elements - 
 which can be formed within each triple of representations :

             representation triple      contributions

              a     a     a               1

    mo occupation :
   irrep   mo's   occupied
    a      272       81
 
 number of basis functions   :                    272
 number of occupied orbitals :                     81
 
  
           ------------------
           density functional
           ------------------
 PBE0 hybrid functional
 exchange:    3/4 (LDA+PBE) + 1/4 HF
 correlation: LDA (PW) + PBE

 iterations will be done with small grid
  
 spherical integration : Lebedev's spherical grid
 spherical gridsize    :                     5
    i.e. gridpoints    :                   590
 value for diffuse not defined
 radial integration    : Chebyshev 2nd kind (scaling 3)
 radial gridsize       :                     8
 integration cells     :                    21
 partition function    : becke
 partition sharpness   :                     3
  
  
           ----------------------
               RI - INFORMATION
           ----------------------

 biggest AO integral is expected to be    21.668154127

 Threshold for integral neglect (rithr2):   0.11E-10
 Threshold for integral neglect (rithr1):   0.11E-10

 Contributions to RI integral batches: 
  neglected integral batches:                  2187
  direct contribution:                            0
  memory contribution:                  5073
 Core memory available (ricore)            5000 MiB
 Core memory needed for (P|Q) and Cholesky 7 MiB
 Core memory used for integrals            244 MiB
  
 ****************************************
 Memory allocated for RIDFT 250 MiB
 ****************************************
                                            
  MOs are in ASCII format !


 reading orbital data $scfmo  from file mos
 orbital characterization : scfconv=7
 preparing numerical integration ....
          Overall gridpoints after grid construction =        122143

 Calculating ground state density on molecular grid

 Integral of ground state density: N =   161.9999972121700    



 number of non-frozen orbitals          :   272
 number of non-frozen occupied orbitals :    81



                        -------------------
                         excitation vector 
                        -------------------


 dimension of super-tensorspace: 2

          IRREP   tensor space dimension   number of roots

           a             15471                   3

 maximum number of Davidson iterations set to   50


 machine precision: 2.22D-16


 logfile sing_a    will be constructed


                       Nonorthonormal Krylov Space Iteration


 total number of roots to be determined:   3


 maximum core memory set to   500 MB,
 corresponding to      379 vectors in CAO basis


 maximum number of simultaneously treated vectors (including degeneracy):        6


 Iteration IRREP Converged      Max. Euclidean
                 roots          residual norm

    1       a        0        1.538932635092508D-01
 
    2       a        0        4.542671548611038D-02
 
    3       a        0        1.893491946662568D-02
 
    4       a        0        8.198853937576245D-03
 
    5       a        0        3.263575756906922D-03
 
    6       a        0        1.419840410522573D-03
 
    7       a        0        4.896977231142160D-04
 
    8       a        1        1.623175123970539D-04
 
    9       a        1        5.482964022770732D-05
 
   10       a        1        1.544353484226488D-05
 
   11       a        3        9.149977708660489D-06
 

 converged!


 Switching to fine grid

 preparing numerical integration ....
          Overall gridpoints after grid construction =        372404

 Calculating ground state density on molecular grid

 Integral of ground state density: N =   161.9999985600152    



 Iteration IRREP Converged      Max. Euclidean
                 roots          residual norm

   12       a        3        8.938880991540204D-06
 

 converged!

 Eigenpairs written on logfile sing_a   



 IRREP   Vector     Eigenvalue           Euclidean residual norm

  a         1    8.766757201251438D-02    8.038675070044263D-06
            2    1.017619540938106D-01    8.938880991540204D-06
            3    1.193682293065366D-01    7.994067313553565D-06
 




                    Selection rules for point group c1  


 Subduction with respect to c1  :

    Polar vector representation: a                           

    Axial vector representation: a                           

    Symmetric second rank tensor representation: a                           




                            Ground state


 Total energy:                           -4011.727011133000    

 Charge:

               elec          nuc         total

          -162.000000   161.000000    -1.000000


 Electric dipole moment:

               elec          nuc         total   

    x      837.537917  -831.731586     5.806331    Norm:              7.694195
    y     -484.888604   479.840128    -5.048476
    z       -0.051488     0.057326     0.005838    Norm / debye:     19.556840


 Electric quadrupole moment:

               elec          nuc         total   

   xx   -12244.148530 12052.209656  -191.938874
   yy    -2499.742298  2375.770740  -123.971558    1/3*trace:      -136.253089
   zz      -98.540045     5.691210   -92.848835
   xy     2623.078676 -2596.837089    26.241587
   xz        5.024437    -5.002918     0.021519    Anisotropy:       98.840170
   yz        2.754271    -2.705431     0.048840



 ==============================================================================

                              I R R E P   a   

 ==============================================================================


 Excitation is electric dipole allowed

 Excitation is magnetic dipole allowed

 Excitation is electric quadrupole allowed




                         1 singlet a excitation


 Total energy:                           -4011.639343560988    

 Excitation energy:                      0.8766757201251438E-01

 Excitation energy / eV:                  2.385557033294533    

 Excitation energy / nm:                  519.7286934500241    

 Excitation energy / cm^(-1):             19240.80799181225    


 Oscillator strength:

    velocity representation:             0.4339308333775452    

    length representation:               0.4929433342130563    

    mixed representation:                0.4624956675235259    


 Rotatory strength:

    velocity representation:            -0.3504701740254390E-06

    velocity rep. / 10^(-40)erg*cm^3:   -0.2264206124877998E-01

    length representation:              -0.4218871015398087E-06

    length rep. / 10^(-40)erg*cm^3:     -0.2725593873914429E-01


 Dominant contributions:

      occ. orbital   energy / eV   virt. orbital     energy / eV   |coeff.|^2*100
       81 a              -2.09          82 a               0.43       92.1
 

 Change of electron number:

            -0.000000


 Electric transition dipole moment (velocity rep.):

    x       -2.704954        Norm:                  2.724811
    y        0.328356
    z        0.000740        Norm / debye:          6.925831


 Electric transition dipole moment (length rep.):

    x       -2.882234        Norm:                  2.904187
    y        0.356417
    z        0.000761        Norm / debye:          7.381764


 Magnetic transition dipole moment / i:

    x        0.000001        Norm:                  0.001833
    y        0.000000
    z        0.001833        Norm / Bohr mag.:      0.502338


 Electric quadrupole transition moment:

   xx       23.683158
   yy        2.553921        1/3*trace:             8.703659
   zz       -0.126101
   xy      -11.120592
   xz        0.001110        Anisotropy:           29.685968
   yz        0.001233




                         2 singlet a excitation


 Total energy:                           -4011.625249178906    

 Excitation energy:                      0.1017619540938106    

 Excitation energy / eV:                  2.769084847880033    

 Excitation energy / nm:                  447.7444745017065    

 Excitation energy / cm^(-1):             22334.16729404943    


 Oscillator strength:

    velocity representation:             0.1363819316586394E-04

    length representation:               0.2124019162380456E-07

    mixed representation:                0.3643373824527941E-06


 Rotatory strength:

    velocity representation:             0.4749903833470795E-06

    velocity rep. / 10^(-40)erg*cm^3:    0.3068666651087238E-01

    length representation:               0.5081960802594283E-06

    length rep. / 10^(-40)erg*cm^3:      0.3283191446353625E-01


 Dominant contributions:

      occ. orbital   energy / eV   virt. orbital     energy / eV   |coeff.|^2*100
       80 a              -3.25          82 a               0.43       97.4
 

 Change of electron number:

            -0.000000


 Electric transition dipole moment (velocity rep.):

    x        0.000360        Norm:                  0.014179
    y       -0.000114
    z       -0.014174        Norm / debye:          0.036039


 Electric transition dipole moment (length rep.):

    x        0.000393        Norm:                  0.000560
    y       -0.000081
    z        0.000390        Norm / debye:          0.001422


 Magnetic transition dipole moment / i:

    x        0.001109        Norm:                  0.001414
    y       -0.000878
    z        0.000002        Norm / Bohr mag.:      0.387662


 Electric quadrupole transition moment:

   xx       -0.002942
   yy       -0.000166        1/3*trace:            -0.001205
   zz       -0.000507
   xy        0.002026
   xz        0.073280        Anisotropy:            0.180693
   yz        0.074209




                         3 singlet a excitation


 Total energy:                           -4011.607642903693    

 Excitation energy:                      0.1193682293065366    

 Excitation energy / eV:                  3.248176177771571    

 Excitation energy / nm:                  381.7041848128090    

 Excitation energy / cm^(-1):             26198.29804436503    


 Oscillator strength:

    velocity representation:             0.2708311719230280    

    length representation:               0.3082069981580061    

    mixed representation:                0.2888951054906604    


 Rotatory strength:

    velocity representation:            -0.1703177989935427E-06

    velocity rep. / 10^(-40)erg*cm^3:   -0.1100335013469442E-01

    length representation:              -0.3034285898984144E-06

    length rep. / 10^(-40)erg*cm^3:     -0.1960294834279439E-01


 Dominant contributions:

      occ. orbital   energy / eV   virt. orbital     energy / eV   |coeff.|^2*100
       79 a              -3.48          82 a               0.43       92.8
 

 Change of electron number:

             0.000000


 Electric transition dipole moment (velocity rep.):

    x       -1.821009        Norm:                  1.844805
    y        0.295350
    z        0.000272        Norm / debye:          4.689063


 Electric transition dipole moment (length rep.):

    x       -1.938740        Norm:                  1.967988
    y        0.338029
    z        0.000211        Norm / debye:          5.002165


 Magnetic transition dipole moment / i:

    x       -0.000000        Norm:                  0.000517
    y       -0.000003
    z        0.000517        Norm / Bohr mag.:      0.141626


 Electric quadrupole transition moment:

   xx       16.069431
   yy        2.256821        1/3*trace:             6.131706
   zz        0.068865
   xy       -6.354559
   xz       -0.002640        Anisotropy:           18.626272
   yz       -0.000475
 

 Excited state no.    1 chosen for optimization


                       ----------------------
                        CPKS right-hand side 
                       ----------------------


          IRREP   tensor space dimension   number of roots

           a             15471                   1

                          ----------------
                           CPKS equations 
                          ----------------


 logfile dipl_a    will be constructed

 Switching to coarse grid

 preparing numerical integration ....
          Overall gridpoints after grid construction =        122143


                       Nonorthonormal Krylov Space Iteration


 total number of roots to be determined:   1


 maximum core memory set to   500 MB,
 corresponding to      754 vectors in CAO basis


 maximum number of simultaneously treated vectors (including degeneracy):        1


 Iteration IRREP Converged      Max. Euclidean
                 roots          residual norm

    1       a        0        1.060591901262533D-01
 
    2       a        0        4.917858075704862D-02
 
    3       a        0        2.031221457470029D-02
 
    4       a        0        8.075308272596489D-03
 
    5       a        0        3.392998170812473D-03
 
    6       a        0        9.660211107951853D-04
 
    7       a        0        3.929106910582501D-04
 
    8       a        0        1.409023400696875D-04
 
    9       a        0        5.966649084916038D-05
 
   10       a        0        1.640624964950558D-05
 
   11       a        1        6.930584216290716D-06
 

 converged!


 Switching to fine grid

 preparing numerical integration ....
          Overall gridpoints after grid construction =        372404

 Iteration IRREP Converged      Max. Euclidean
                 roots          residual norm

   12       a        0        1.588920210365363D-05
 

 NOTE: Residual norms are larger than 1.00D-05 due to mgrid option!

 Eigenpairs written on logfile dipl_a   



 IRREP   Vector     Frequency            Euclidean residual norm

  a         1    0.000000000000000D+00    1.588920210365363D-05
 

                          -------------------
                           relaxed densities 
                          -------------------


    ----------------------------------------
     S+T+V CONTRIBUTIONS TO ENERGY GRADIENT 
    ----------------------------------------

 1e-integral 1st. derivatives will be neglected if expon. factor < 0.100000E-10


    -----------------------------------------------
     TWO ELECTRON CONTRIBUTIONS TO ENERGY GRADIENT 
    -----------------------------------------------

 setting up bound for integral derivative estimation

 increment for numerical differentiation : 0.00050000

 biggest AO integral is expected to be    21.668154127
 biggest cartesian 1st derivative AO integral is expected to be    83.347447328

 biggest 1-particle AO density matrix element is expected to be    3.2085602208

 core memory to be involved in 2e-gradient :
   symmetry shell pair data              :         1
   two particle density+dens. estimates  :      8556
   derivative integrals                  :      8498
   derivative integral bound             :     21780
   totally                               :     30276


 setting up bound for integral derivative estimation

 increment for numerical differentiation : 0.00050000

 biggest AO integral is expected to be    21.668154127
 biggest cartesian 1st derivative AO integral is expected to be    83.347447328

 2e-integral 1st. derivatives will be neglected if expon. factor < 0.100000E-06
 outer boundary for 2e-integral derivative neglection is 0.161893E-08

 Integrated ground state density     :   161.9999985600141    


          ------------------------------------------------
           cartesian gradient of the energy (hartree/bohr)
          ------------------------------------------------

  ATOM      1 o           2 c           3 c           4 c           5 c 
dE/dx  0.5359667D-04 -0.2686226D-03  0.3572248D-03  0.4259905D-05  0.1303407D-02
dE/dy  0.1502709D-03 -0.8698595D-03  0.2413855D-04  0.3084460D-03 -0.7156906D-03
dE/dz  0.1363851D-05  0.4101505D-05 -0.2724566D-05  0.1122910D-05  0.1813937D-05

  ATOM      6 c           7 c           8 s           9 c          10 n 
dE/dx -0.6437548D-03 -0.8753263D-04  0.3772614D-03  0.1363551D-02 -0.1432053D-02
dE/dy -0.2221142D-05 -0.1376310D-03  0.1485114D-03 -0.2127007D-03  0.1419440D-03
dE/dz  0.3463884D-05 -0.5702452D-05  0.1129576D-06  0.8769600D-06 -0.3276560D-05

  ATOM     11 c          12 s          13 n          14 c          15 c 
dE/dx -0.1578303D-02 -0.4873447D-04  0.1075184D-02 -0.1145850D-02  0.1357466D-03
dE/dy  0.1426849D-03  0.2683564D-03 -0.2154382D-03  0.4068467D-03 -0.1959312D-03
dE/dz -0.1951076D-05 -0.2157148D-05  0.3705196D-05  0.1875838D-05  0.2716192D-05

  ATOM     16 h          17 h          18 o          19 h          20 br
dE/dx -0.3525164D-05 -0.2473008D-05  0.3657334D-03  0.3352447D-04  0.1079259D-03
dE/dy  0.2904223D-04  0.2889357D-04  0.4880645D-04  0.5560505D-03  0.2821211D-04
dE/dz -0.5494019D-04  0.5419827D-04 -0.3596258D-05 -0.1978347D-05  0.1647250D-05

  ATOM     21 h 
dE/dx  0.1834296D-04
dE/dy  0.6413316D-04
dE/dz -0.5554611D-06
 
 resulting FORCE  (fx,fy,fz) = (-.151D-04,-.314D-05,0.117D-06)
 resulting MOMENT (mx,my,mz) = (0.101D-04,-.204D-05,-.315D-04)


 **********************************************************************
  |maximum component of gradient| : 0.15783028E-02  (atom 11 c )       
   gradient norm                  : 0.36965159E-02
 **********************************************************************

 exx =      -0.003592 eyy =       0.001835 ezz =      -0.000184
 eyz =      -0.000005 exz =      -0.000020 exy =       0.006943


 <getgrd> : data group $grad  is missing 

   ***  cartesian gradients written onto <control>  ***
 
 
 
 ==============================================================================
                           electrostatic moments
 ==============================================================================

 reference point for electrostatic moments:    0.00000   0.00000   0.00000

 
              nuc           gs,e       ->  gs,tot          excit     ->  total
 ------------------------------------------------------------------------------
                          charge      
 ------------------------------------------------------------------------------
         161.000000    -162.000000      -1.000000      -0.000000      -1.000000
 
 ------------------------------------------------------------------------------
                       dipole moment  
 ------------------------------------------------------------------------------
   x    -831.731586     837.537917       5.806331      -0.930584       4.875748
   y     479.840128    -484.888604      -5.048476       0.851151      -4.197326
   z       0.057326      -0.051488       0.005838      -0.002048       0.003791
 
   | dipole moment | =     6.4335 a.u. =    16.3524 debye 
 
 ------------------------------------------------------------------------------
                     quadrupole moment
 ------------------------------------------------------------------------------
  xx   12052.209656  -12244.148530    -191.938874       1.057988    -190.880887
  yy    2375.770740   -2499.742298    -123.971558       7.364385    -116.607173
  zz       5.691210     -98.540045     -92.848835       0.109593     -92.739242
  xy   -2596.837089    2623.078676      26.241587      -8.523554      17.718033
  xz      -5.002918       5.024437       0.021519       0.020141       0.041661
  yz      -2.705431       2.754271       0.048840      -0.011694       0.037146
 
     1/3  trace=    -133.409100
     anisotropy=      93.812675
 
 ==============================================================================
 


    ------------------------------------------------------------------------
         total  cpu-time : 10 minutes and 10 seconds
         total wall-time : 10 minutes and 10 seconds
    ------------------------------------------------------------------------

   ****  egrad : all done  ****


    2018-02-09 11:46:21.984 

