 operating system is UNIX !

 ridft (missouri) : TURBOMOLE V7.2 ( 21454 ) 4 Oct 2017 at 12:48:15
 Copyright (C) 2017 TURBOMOLE GmbH, Karlsruhe


    2018-02-09 11:35:33.707 



                                  r i d f t

                        DFT program with RI approximation 
                                for coulomb part 




                                                 
                                 References:     
                                                 
          TURBOMOLE:                             
              R. Ahlrichs, M. Baer, M. Haeser, H. Horn, and
              C. Koelmel
              Electronic structure calculations on workstation
              computers: the program system TURBOMOLE
              Chem. Phys. Lett. 162: 165 (1989)
          Density Functional:                              
              O. Treutler and R. Ahlrichs                      
              Efficient Molecular Numerical Integration Schemes
              J. Chem. Phys. 102: 346 (1995)                   
          Parallel Version:                                
              Performance of parallel TURBOMOLE for Density    
              Functional Calculations                          
              M. v. Arnim and R. Ahlrichs                      
              J. Comp. Chem. 19: 1746 (1998)                   
          RI-J Method:                                     
              Auxiliary Basis Sets to approximate Coulomb      
              Potentials                                       
              Chem. Phys. Lett. 240: 283 (1995)                
              K. Eichkorn, O. Treutler, H. Oehm, M. Haeser     
              and R. Ahlrichs                                  
              Chem. Phys. Lett. 242: 652 (1995)                
                                                           
              Auxiliary Basis Sets for Main Row Atoms and their
              Use to approximate Coulomb Potentials            
              K. Eichkorn, F. Weigend, O. Treutler and         
              R. Ahlrichs                                      
              Theo. Chem. Acc. 97: 119 (1997)                   
                                                           
              Accurate Coulomb-fitting basis sets for H to Rn 
              F. Weigend                                        
              Phys. Chem. Chem. Phys. 8: 1057 (2006)            
                                                           
          Multipole accelerated RI-J (MARI-J):             
              Fast evaluation of the Coulomb potential for     
              electron densities using multipole accelerated   
              resolution of identity approximation             
              M. Sierka, A. Hogekamp and R. Ahlrichs           
              J. Chem. Phys. 118: 9136 (2003)                  
          RI-JK Method:                                     
              A fully direct RI-HF algorithm: Implementation,
              optimised auxiliary basis sets, demonstration of
              accuracy and efficiency                         
              F. Weigend                                      
              Phys. Chem. Chem. Phys. 4: 4285 (2002)           
          Two-component HF and DFT with spin-orbit coupling:  
              Self-consistent treatment of spin-orbit         
              interactions with efficient Hartree-Fock and    
              density functional methods                      
              M. K. Armbruster, F. Weigend, C. van Wüllen and 
              W. Klopper                                      
              Phys. Chem. Chem. Phys. 10: 1748 (2008)         
          Relativistic all-electron 2c calculations           
              An efficient implementation of two-component    
              relativistic exact-decoupling methods for large 
              molecules                                       
              D. Peng, N. Middendorf, F. Weigend, M. Reiher   
              J. Chem. Phys. 138, 184105 (2013)               
                                         




              +--------------------------------------------------+
              |      general information about current run       |
              +--------------------------------------------------+

 

 DENSITY CONVERGENCE CHECK SWITCHED ON !
 SCF CONVERGENCE IF RMS(delta[D]) <     0.1000000000E-06

 PBE0 hybrid functional
 exchange:    3/4 (LDA+PBE) + 1/4 HF
 correlation: LDA (PW) + PBE
 A Hybrid-DFT calculation using the RI-J approximation will be carried out.
 Allocatable memory for RI due to $ricore (MB):                  5000


              +--------------------------------------------------+
              | Atomic coordinate, charge and isotop information |
              +--------------------------------------------------+

                    atomic coordinates            atom    charge  isotop
        -12.73900999    6.95737902   -0.00692013    o      8.000     0
        -10.81595440    5.61938763   -0.00422396    c      6.000     0
         -8.29992721    6.76320557   -0.00950458    c      6.000     0
         -6.10903286    5.27305734   -0.00619886    c      6.000     0
         -6.20348863    2.60776460    0.00220136    c      6.000     0
         -8.59991928    1.43815616    0.00735567    c      6.000     0
        -10.78825864    2.86837287    0.00420670    c      6.000     0
         -3.00400142    6.28922755   -0.01137445    s     16.000     0
         -2.05076291    3.10470532   -0.00201697    c      6.000     0
         -3.87141415    1.42966838    0.00438864    n      7.000     0
          0.61811767    2.60161308   -0.00218410    c      6.000     0
          1.57549981   -0.60811739    0.00735126    s     16.000     0
          2.37247141    4.34438168   -0.00886897    n      7.000     0
          4.77300412    3.38550441   -0.00753940    c      6.000     0
          4.81693806    0.45485114    0.00192480    c      6.000     0
          5.84088078   -0.22316337    1.68859639    h      1.000     0
          5.83882652   -0.23407369   -1.68156782    h      1.000     0
          6.73311778    4.58978619   -0.01293518    o      8.000     0
         -8.23527695    8.82928170   -0.01597437    h      1.000     0
        -13.97515732    1.24857344    0.01151030    br    35.000     0
         -8.69404343   -0.62513073    0.01386299    h      1.000     0
 
       center of nuclear mass  :   -5.47638447    2.94078235    0.00068062
       center of nuclear charge:   -5.16603470    2.98037346    0.00035606

              +--------------------------------------------------+
              |               basis set information              |
              +--------------------------------------------------+

              we will work with the 1s 3p 5d 7f 9g ... basis set
              ...i.e. with spherical basis functions...

   type   atoms  prim   cont   basis
   ---------------------------------------------------------------------------
    o        2     24     14   def2-SV(P)   [3s2p1d|7s4p1d]
    c       10     24     14   def2-SV(P)   [3s2p1d|7s4p1d]
    s        2     36     18   def2-SV(P)   [4s3p1d|10s7p1d]
    n        2     24     14   def2-SV(P)   [3s2p1d|7s4p1d]
    h        4      4      2   def2-SV(P)   [2s|4s]
    br       1     74     32   def2-SV(P)   [5s4p3d|14s10p6d]
   ---------------------------------------------------------------------------
   total:   21    498    272
   ---------------------------------------------------------------------------

   total number of primitive shells          :   88
   total number of contracted shells         :  120
   total number of cartesian basis functions :  291
   total number of SCF-basis functions       :  272


 integral neglect threshold       :  0.11E-10
 integral storage threshold THIZE :  0.10E-04
 integral storage threshold THIME :         5

 RI-J AUXILIARY BASIS SET information:

              we will work with the 1s 3p 5d 7f 9g ... basis set
              ...i.e. with spherical basis functions...

   type   atoms  prim   cont   basis
   ---------------------------------------------------------------------------
    o        2     70     49   def2-SV(P)   [6s4p3d1f1g|12s5p4d2f1g]
    c       10     70     49   def2-SV(P)   [6s4p3d1f1g|12s5p4d2f1g]
    s        2     77     51   def2-SV(P)   [8s4p3d1f1g|14s5p5d2f1g]
    n        2     70     49   def2-SV(P)   [6s4p3d1f1g|12s5p4d2f1g]
    h        4     16     11   def2-SV(P)   [3s1p1d|5s2p1d]
    br       1     89     58   def2-SV(P)   [8s4p3d2f1g|19s5p5d3f1g]
   ---------------------------------------------------------------------------
   total:   21   1287    890
   ---------------------------------------------------------------------------

   total number of primitive shells          :  140
   total number of contracted shells         :  282
   total number of cartesian basis functions : 1101
   total number of SCF-basis functions       :  890


 symmetry group of the molecule :   c1 

 the group has the following generators :
   c1(z)

    1 symmetry operations found

 there are 1 real representations :   a   

 maximum number of shells which are related by symmetry :  1


    mo occupation :
   irrep   mo's   occupied
    a      272       81
 
 number of basis functions   :                    272
 number of occupied orbitals :                     81
 
  
           ------------------
           density functional
           ------------------
 PBE0 hybrid functional
 exchange:    3/4 (LDA+PBE) + 1/4 HF
 correlation: LDA (PW) + PBE

 iterations will be done with small grid
  
 spherical integration : Lebedev's spherical grid
 spherical gridsize    :                     5
    i.e. gridpoints    :                   590
 value for diffuse not defined
 radial integration    : Chebyshev 2nd kind (scaling 3)
 radial gridsize       :                     8
 integration cells     :                    21
 partition function    : becke
 partition sharpness   :                     3
  

 biggest AO integral is expected to be    21.668154127
  
           ------------------------
               RI-J - INFORMATION
           ------------------------
 Contributions to RI integral batches: 
  neglected integral batches:                  2343
  direct contribution:                            0
  memory contribution:                  4917
 Memory core needed for (P|Q) and Cholesky      7 MByte
 Memory core minimum needed except of (P|Q)     1 MByte
 Total minimum memory core needed (sum)         7 MByte
  
 ****************************************
 Memory allocated for RI-J   243 MByte
 ****************************************
                                            

          ------------------------
          nuclear repulsion energy  :   1647.18175145    
          ------------------------


         -----------------
         -S,T+V- integrals
         -----------------

 1e-integrals will be neglected if expon. factor < 0.114844E-11
 
   Difference densities algorithm switched on.
   The maximal number of linear combinations of
   difference densities is                    20 .

 DIIS switched on: error vector is FDS-SDF
 Max. Iterations for DIIS is     :   4
 DIIS matrix (see manual) 
    Scaling factor of diagonals  :  1.200
    threshold for scaling factor :  0.000

 scf convergence criterion : increment of total energy < .1000000D-06
                  and increment of one-electron energy < .1000000D-03

  MOs are in ASCII format !


 automatic virtual orbital shift switched on 
      shift if e(lumo)-e(homo) < 0.10000000    


 reading orbital data $scfmo  from file mos
 orbital characterization : scfconv=7

 DSCF restart information will be dumped onto file mos


 Starting SCF iterations

          Overall gridpoints after grid construction =        122143

 ITERATION  ENERGY          1e-ENERGY        2e-ENERGY     RMS[dD(SAO)]   TOL
   1  -4011.7270076308    -8854.8035656     3195.8948065    0.000D+00 0.115D-10
                            Exc = -172.719779682     Coul =  3424.27170008    
                            exK = -55.6571139034    
                              N = 161.99999721    
                            current damping = 0.700
 
          max. resid. norm for Fia-block=  7.249D-06 for orbital     81a         
          max. resid. fock norm         =  1.789D-05 for orbital    196a         

 ITERATION  ENERGY          1e-ENERGY        2e-ENERGY     RMS[dD(SAO)]   TOL
   2  -4011.7270076318    -8854.8036092     3195.8948502    0.475D-06 0.726D-11
                            Exc = -172.719774824      Eck =  3368.61462499    
                              N = 161.99999721    
                            current damping = 0.700
 
          Norm of current diis error: 0.60878E-04
          max. resid. norm for Fia-block=  3.734D-06 for orbital     81a         
          max. resid. fock norm         =  7.968D-06 for orbital    196a         

 ENERGY & DENSITY CONVERGED !

          Overall gridpoints after grid construction =        372404

 ITERATION  ENERGY          1e-ENERGY        2e-ENERGY     RMS[dD(SAO)]   TOL
   3  -4011.7270111330    -8854.8035796     3195.8948170    0.252D-06 0.677D-11
                            Exc = -172.719781322      Eck =  3368.61459830    
                              N = 161.99999856    
                            current damping = 0.750
 
          Norm of current diis error: 0.13445E-04
          max. resid. norm for Fia-block=  1.287D-06 for orbital     61a         
          max. resid. fock norm         =  2.830D-06 for orbital    196a         

 End of SCF iterations

   convergence criteria satisfied after     3 iterations


                  ------------------------------------------ 
                 |  total energy      =  -4011.72701113304  |
                  ------------------------------------------ 
                 :  kinetic energy    =   4002.29435644247  :
                 :  potential energy  =  -8014.02136757551  :
                 :  virial theorem    =      1.99764872967  :
                 :  wavefunction norm =      1.00000000000  :
                  .......................................... 


 <geterg> : there is no data group $energy 


 orbitals $scfmo  will be written to file mos

    irrep                 77a         78a         79a         80a         81a   
 eigenvalues H         -0.17324    -0.16421    -0.12802    -0.11947    -0.07684
            eV          -4.7141     -4.4683     -3.4836     -3.2511     -2.0909
 occupation              2.0000      2.0000      2.0000      2.0000      2.0000 

    irrep                 82a         83a         84a         85a         86a   
 eigenvalues H          0.01595     0.10590     0.11766     0.12749     0.13195
            eV           0.4341      2.8818      3.2018      3.4691      3.5905
 
 
 
 
 ==============================================================================
                           electrostatic moments
 ==============================================================================

 reference point for electrostatic moments:    0.00000   0.00000   0.00000

 
              nuc           elec       ->  total
 ------------------------------------------------------------------------------
                          charge      
 ------------------------------------------------------------------------------
         161.000000    -162.000000      -1.000000
 
 ------------------------------------------------------------------------------
                       dipole moment  
 ------------------------------------------------------------------------------
   x    -831.731586     837.537917       5.806331
   y     479.840128    -484.888604      -5.048476
   z       0.057326      -0.051488       0.005838
 
   | dipole moment | =     7.6942 a.u. =    19.5567 debye 
 
 ------------------------------------------------------------------------------
                     quadrupole moment
 ------------------------------------------------------------------------------
  xx   12052.209656  -12244.148530    -191.938874
  yy    2375.770740   -2499.742298    -123.971558
  zz       5.691210     -98.540045     -92.848835
  xy   -2596.837089    2623.078676      26.241587
  xz      -5.002918       5.024437       0.021519
  yz      -2.705431       2.754271       0.048840
 
     1/3  trace=    -136.253089
     anisotropy=      98.840170
 
 ==============================================================================
 


    ------------------------------------------------------------------------
         total  cpu-time :  38.18 seconds
         total wall-time :  38.18 seconds
    ------------------------------------------------------------------------

   ****  ridft : all done  ****


    2018-02-09 11:36:11.878 

