[Molden Format]
[Title]
initial_mdstart                                                                 
[Atoms] AU
 cl    1   17 -.59650708675490E-01 0.27148579803759E+00 0.29777241826231E+01
 o     2    8 0.29352496816920E+01 0.12692968197611E+01 -.22974676649513E+01
 o     3    8 -.14369384428478E+00 -.32322976883592E+01 -.19380589120341E+01
 o     4    8 -.26620650540905E+01 0.14347537375141E+01 -.18166767677133E+01
 h     5    1 0.13333048806247E+01 0.18744302012079E+01 -.27959295864005E+01
 h     6    1 -.18254655394363E+01 0.10646480610798E+01 -.16055605955160E+00
 h     7    1 0.11822975052870E+01 -.20576944681979E+01 -.25877133940118E+01
 h     8    1 -.29212007351883E+01 -.19870289783819E+00 -.24361747972412E+01
 h     9    1 -.23555543624561E+00 -.27134299368786E+01 -.17309156167116E+00
 h    10    1 0.25092996556625E+01 0.86667376939630E+00 -.51509235391784E+00
[GTO]
    1 0
 s    5 1.00
 0.10449827566000E+05 0.54265953789407E-02
 0.15717365221000E+04 0.40626378128836E-01
 0.35712065523000E+03 0.18359747852877E+00
 0.10025185935000E+03 0.47438948768198E+00
 0.30812727554000E+02 0.43735181104122E+00
 s    3 1.00
 0.51923789434000E+02 -.92754154848099E-01
 0.57045760975000E+01 0.56380825544207E+00
 0.23508376809000E+01 0.50367044629712E+00
 s    1 1.00
 0.44605124672000E+00 0.10000000000000E+01
 s    1 1.00
 0.16848856190000E+00 0.10000000000000E+01
 p    5 1.00
 0.30766790569000E+03 -.88797025588865E-02
 0.72102015515000E+02 -.64284071721237E-01
 0.22532680262000E+02 -.24288739736006E+00
 0.78991765444000E+01 -.48340836369878E+00
 0.28767268321000E+01 -.38952563875509E+00
 p    1 1.00
 0.77459363955000E+00 0.10000000000000E+01
 p    1 1.00
 0.21037699698000E+00 0.10000000000000E+01
 d    1 1.00
 0.65000000000000E+00 0.10000000000000E+01
 
    2 0
 s    5 1.00
 0.22661767785000E+04 -.53893503921743E-02
 0.34087010191000E+03 -.40234721388960E-01
 0.77363135167000E+02 -.18008184205526E+00
 0.21479644940000E+02 -.46828857657651E+00
 0.66589433124000E+01 -.44692617160187E+00
 s    1 1.00
 0.80975975668000E+00 0.10000000000000E+01
 s    1 1.00
 0.25530772234000E+00 0.10000000000000E+01
 p    3 1.00
 0.17721504317000E+02 0.62630248763161E-01
 0.38635505440000E+01 0.33331138482352E+00
 0.10480920883000E+01 0.74148638308122E+00
 p    1 1.00
 0.27641544411000E+00 0.10000000000000E+01
 d    1 1.00
 0.12000000000000E+01 0.10000000000000E+01
 
    3 0
 s    5 1.00
 0.22661767785000E+04 -.53893503921743E-02
 0.34087010191000E+03 -.40234721388960E-01
 0.77363135167000E+02 -.18008184205526E+00
 0.21479644940000E+02 -.46828857657651E+00
 0.66589433124000E+01 -.44692617160187E+00
 s    1 1.00
 0.80975975668000E+00 0.10000000000000E+01
 s    1 1.00
 0.25530772234000E+00 0.10000000000000E+01
 p    3 1.00
 0.17721504317000E+02 0.62630248763161E-01
 0.38635505440000E+01 0.33331138482352E+00
 0.10480920883000E+01 0.74148638308122E+00
 p    1 1.00
 0.27641544411000E+00 0.10000000000000E+01
 d    1 1.00
 0.12000000000000E+01 0.10000000000000E+01
 
    4 0
 s    5 1.00
 0.22661767785000E+04 -.53893503921743E-02
 0.34087010191000E+03 -.40234721388960E-01
 0.77363135167000E+02 -.18008184205526E+00
 0.21479644940000E+02 -.46828857657651E+00
 0.66589433124000E+01 -.44692617160187E+00
 s    1 1.00
 0.80975975668000E+00 0.10000000000000E+01
 s    1 1.00
 0.25530772234000E+00 0.10000000000000E+01
 p    3 1.00
 0.17721504317000E+02 0.62630248763161E-01
 0.38635505440000E+01 0.33331138482352E+00
 0.10480920883000E+01 0.74148638308122E+00
 p    1 1.00
 0.27641544411000E+00 0.10000000000000E+01
 d    1 1.00
 0.12000000000000E+01 0.10000000000000E+01
 
    5 0
 s    3 1.00
 0.13010701000000E+02 0.33485484812989E-01
 0.19622572000000E+01 0.23472187088125E+00
 0.44453796000000E+00 0.81377028525955E+00
 s    1 1.00
 0.12194962000000E+00 0.10000000000000E+01
 p    1 1.00
 0.80000000000000E+00 0.10000000000000E+01
 
    6 0
 s    3 1.00
 0.13010701000000E+02 0.33485484812989E-01
 0.19622572000000E+01 0.23472187088125E+00
 0.44453796000000E+00 0.81377028525955E+00
 s    1 1.00
 0.12194962000000E+00 0.10000000000000E+01
 p    1 1.00
 0.80000000000000E+00 0.10000000000000E+01
 
    7 0
 s    3 1.00
 0.13010701000000E+02 0.33485484812989E-01
 0.19622572000000E+01 0.23472187088125E+00
 0.44453796000000E+00 0.81377028525955E+00
 s    1 1.00
 0.12194962000000E+00 0.10000000000000E+01
 p    1 1.00
 0.80000000000000E+00 0.10000000000000E+01
 
    8 0
 s    3 1.00
 0.13010701000000E+02 0.33485484812989E-01
 0.19622572000000E+01 0.23472187088125E+00
 0.44453796000000E+00 0.81377028525955E+00
 s    1 1.00
 0.12194962000000E+00 0.10000000000000E+01
 p    1 1.00
 0.80000000000000E+00 0.10000000000000E+01
 
    9 0
 s    3 1.00
 0.13010701000000E+02 0.33485484812989E-01
 0.19622572000000E+01 0.23472187088125E+00
 0.44453796000000E+00 0.81377028525955E+00
 s    1 1.00
 0.12194962000000E+00 0.10000000000000E+01
 p    1 1.00
 0.80000000000000E+00 0.10000000000000E+01
 
   10 0
 s    3 1.00
 0.13010701000000E+02 0.33485484812989E-01
 0.19622572000000E+01 0.23472187088125E+00
 0.44453796000000E+00 0.81377028525955E+00
 s    1 1.00
 0.12194962000000E+00 0.10000000000000E+01
 p    1 1.00
 0.80000000000000E+00 0.10000000000000E+01
 
[MO]
 Sym=     1a   
 Ene= -.10139481624656E+03
 Spin= Alpha
 Occup= 2.000000
     1 0.99401475929090E+00
     2 0.22383586047428E-01
     3 -.10322834098468E-01
     4 0.67530340136532E-02
     5 0.95094225259459E-05
     6 0.67802918518715E-05
     7 0.11041374428781E-03
     8 0.58563128930676E-04
     9 0.22179222508012E-04
    10 0.53086827600718E-03
    11 -.18777956881027E-03
    12 -.28571897319475E-04
    13 -.13488591218530E-02
    14 -.27871971375838E-04
    15 -.45945712409975E-04
    16 0.73817683785812E-04
    17 -.10523215462984E-04
    18 0.31041883810040E-04
    19 -.34482042095006E-05
    20 -.31971959565890E-04
    21 -.32574672764558E-03
    22 0.89114441712552E-03
    23 -.15602449039863E-04
    24 0.21259139950934E-04
    25 -.10288796047629E-03
    26 -.30530913166819E-04
    27 -.10006773976678E-03
    28 0.52292738270058E-03
    29 -.39925697710216E-05
    30 -.16185362197205E-04
    31 0.20177931968226E-04
    32 0.26649387464928E-05
    33 -.20860089662507E-04
    34 -.58645642622640E-05
    35 -.33592172049413E-04
    36 -.34691680769003E-03
    37 0.92557633498182E-03
    38 0.11209162418827E-04
    39 -.17213876109915E-05
    40 -.10636036214083E-03
    41 -.40235840481022E-04
    42 0.12368782756470E-03
    43 0.52418471664361E-03
    44 -.14801062603218E-04
    45 0.75425115086091E-06
    46 0.14046811452357E-04
    47 0.20571065866367E-05
    48 0.14745044561601E-05
    49 0.27017777043691E-04
    50 -.41413685691863E-04
    51 -.44607356222356E-03
    52 0.13260862604318E-02
    53 -.27278425446133E-04
    54 -.15953011705544E-04
    55 -.11879486838263E-03
    56 0.22417194913819E-03
    57 0.31299599247970E-04
    58 0.62686392552709E-03
    59 -.47684283125905E-05
    60 -.11247218183854E-04
    61 0.16015646496444E-04
    62 -.28148136913592E-05
    63 0.16378296544944E-04
    64 -.50174125201473E-05
    65 -.32985910752505E-05
    66 0.34944286651189E-03
    67 -.14866149997221E-04
    68 -.68017001959606E-05
    69 0.22482177860782E-04
    70 -.32084540976743E-03
    71 -.20644494813842E-02
    72 -.58831305792446E-04
    73 0.10598832734079E-04
    74 -.13933895270182E-03
    75 -.38769474548366E-04
    76 0.35306948419029E-03
    77 -.78935449304784E-05
    78 0.51230263327929E-05
    79 0.19416341443041E-04
    80 -.28226601005303E-04
    81 0.46599802558175E-03
    82 0.12354035409723E-04
    83 0.80865436506857E-05
    84 0.15245448384127E-04
    85 -.21920038525676E-03
    86 -.11490319423452E-02
    87 -.41318171917975E-04
    88 -.96504474428151E-04
    89 -.45087425561061E-04
    90 -.15908736634197E-03
    91 -.12804155923306E-02
    92 0.82655514332833E-04
    93 -.45365877918252E-04
    94 -.38141876875880E-04
 Sym=     2a   
 Ene= -.19035244351726E+02
 Spin= Alpha
 Occup= 2.000000
     1 -.18395363771277E-04
     2 0.16221946901544E-03
     3 -.10808356898642E-02
     4 0.17853222191092E-02
     5 -.59467822313917E-04
     6 -.13686058454879E-04
     7 0.66369941409066E-04
     8 -.32798918956593E-03
     9 -.78992445996944E-04
    10 0.38611159277953E-03
    11 0.80223681828723E-03
    12 0.21512408983902E-03
    13 -.10597819973461E-02
    14 -.12431995813151E-05
    15 -.68548242112010E-04
    16 0.69791441693325E-04
    17 0.12167880733816E-04
    18 -.10291939644364E-03
    19 -.30902360368496E-04
    20 0.98892174506701E+00
    21 -.39756024801161E-01
    22 0.17009530660189E-01
    23 0.26639320960473E-02
    24 -.22209414580910E-03
    25 -.11962397310254E-02
    26 -.72669428980321E-03
    27 -.55279232501463E-03
    28 0.85566288157954E-03
    29 -.23137601803643E-03
    30 0.38815432650612E-03
    31 -.15677830846970E-03
    32 0.34666074486510E-03
    33 -.14877607214437E-03
    34 0.31753077002261E-03
    35 0.18181830540618E-02
    36 -.65990979460713E-03
    37 0.12800749683652E-02
    38 -.17830711150621E-03
    39 -.96509053182508E-04
    40 0.71535763184202E-04
    41 0.50008301049219E-03
    42 0.40951848447678E-03
    43 -.10906673129642E-03
    44 -.17310753492780E-04
    45 0.36149285960507E-04
    46 -.18838532467728E-04
    47 0.16454270817617E-04
    48 0.30517710854403E-04
    49 0.18132428749858E-04
    50 0.83694521820403E-03
    51 -.54174151470168E-03
    52 0.10738514295470E-02
    53 -.19494212882263E-03
    54 -.80702984445019E-04
    55 0.81885654858485E-04
    56 0.91066030015293E-03
    57 0.20921471054454E-03
    58 -.64211067937088E-04
    59 0.23998209920950E-04
    60 -.29356743410893E-04
    61 0.53585334899427E-05
    62 -.14125343395448E-04
    63 0.79790689361394E-05
    64 0.18179783621087E-05
    65 0.23195931416824E-02
    66 -.31211705884812E-02
    67 0.29164729495988E-02
    68 -.98106604768522E-03
    69 0.67375887369075E-03
    70 -.30012434478497E-03
    71 -.17021551235872E-03
    72 -.43923946198140E-05
    73 -.94259154907076E-05
    74 0.30296878355740E-05
    75 -.23539207676685E-03
    76 -.12083025768803E-02
    77 -.21196131934777E-03
    78 -.43216204875129E-03
    79 -.99675304094422E-04
    80 -.12624028777491E-03
    81 0.47375060770642E-03
    82 -.77972576593315E-04
    83 0.49978949394449E-04
    84 0.51961785036829E-04
    85 -.89475307797423E-04
    86 0.21979896741529E-03
    87 0.50132410573146E-04
    88 0.16115980311940E-04
    89 -.62805228645579E-04
    90 0.12824573706549E-02
    91 -.39194744216492E-02
    92 0.68135381045307E-03
    93 0.58447681918534E-03
    94 -.22346632704427E-02
 Sym=     3a   
 Ene= -.19019337848676E+02
 Spin= Alpha
 Occup= 2.000000
     1 -.18790646306966E-04
     2 0.16644500685054E-03
     3 -.11377604072549E-02
     4 0.19568698674733E-02
     5 0.13412689525813E-04
     6 0.66397655054986E-04
     7 0.56199873047631E-04
     8 0.73478269297992E-04
     9 0.36953393518198E-03
    10 0.33702806889997E-03
    11 -.18884038626752E-03
    12 -.92766516375483E-03
    13 -.10089261165242E-02
    14 -.67609646741506E-04
    15 0.18174777773969E-04
    16 0.49434868967536E-04
    17 -.23817896425544E-05
    18 0.21134590234467E-04
    19 0.11104536779641E-03
    20 -.19391157993486E-02
    21 -.56159074985047E-03
    22 0.16050478000416E-02
    23 0.18250686005105E-04
    24 0.31224611928195E-03
    25 0.10413165772155E-03
    26 -.62512879157548E-03
    27 -.11426885736116E-02
    28 0.35122116572203E-04
    29 0.70512077073008E-05
    30 -.17652399408798E-04
    31 0.10601191701497E-04
    32 0.22532142554172E-04
    33 0.65416200391076E-06
    34 -.33180645470628E-04
    35 0.98897353259712E+00
    36 -.39370179816717E-01
    37 0.17508310639956E-01
    38 -.12406169420567E-02
    39 -.19148084957001E-02
    40 -.13305944491167E-02
    41 0.47898180578262E-03
    42 0.98469992179227E-03
    43 0.46142688761249E-03
    44 0.15265742012443E-03
    45 0.18200726025838E-03
    46 -.33466468038282E-03
    47 -.34554647345604E-03
    48 0.27375801385324E-03
    49 -.48755798568947E-04
    50 0.85307657740690E-03
    51 -.40009149758527E-03
    52 0.12150090566780E-02
    53 0.91752144963468E-04
    54 -.19002437723213E-04
    55 -.27029193761814E-04
    56 -.11394725137135E-03
    57 -.29209073680371E-03
    58 -.81979598045222E-05
    59 -.17743715448930E-04
    60 0.43924434499702E-04
    61 -.26180719050773E-04
    62 -.30962383064608E-04
    63 -.32869639245575E-04
    64 0.15219860600267E-04
    65 -.45257168630304E-03
    66 0.59885241281090E-03
    67 -.98522649974966E-04
    68 0.87061059047950E-04
    69 -.47121796169003E-05
    70 0.15041282969461E-03
    71 -.55292445804200E-03
    72 -.10299391674795E-04
    73 -.69525767747756E-04
    74 -.11391081938011E-03
    75 0.12488601088016E-02
    76 -.39205757792621E-02
    77 -.16849259602970E-02
    78 -.17876587732180E-02
    79 0.67050445937669E-03
    80 -.67260439177326E-04
    81 -.80304491313050E-03
    82 -.22166517744763E-03
    83 0.49837742440146E-04
    84 -.77623400754384E-04
    85 0.16417715914461E-02
    86 -.39119854067182E-02
    87 0.59957438401795E-04
    88 -.94664834512790E-03
    89 -.24987818255806E-02
    90 -.46903270616493E-03
    91 0.19557539345747E-03
    92 -.12064366138077E-04
    93 -.72214076932990E-04
    94 0.17798641512592E-03
 Sym=     4a   
 Ene= -.19005567076355E+02
 Spin= Alpha
 Occup= 2.000000
     1 -.22169050463699E-04
     2 0.20440207357354E-03
     3 -.16168560101037E-02
     4 0.32888047586773E-02
     5 0.63185983518692E-04
     6 -.35784900541774E-04
     7 0.83562318187631E-04
     8 0.38469367661672E-03
     9 -.21416288215989E-03
    10 0.53942606469260E-03
    11 -.12099196033221E-02
    12 0.65085965552397E-03
    13 -.18890711916971E-02
    14 -.30863069914115E-04
    15 -.12016869183669E-03
    16 0.15103176175080E-03
    17 -.49644353735269E-04
    18 0.19402138947042E-03
    19 -.10008966613907E-03
    20 -.93933844508445E-03
    21 -.53206986125768E-03
    22 0.15852433219762E-02
    23 0.64047896148245E-04
    24 -.62886607030065E-04
    25 0.11496746971570E-04
    26 -.66889171151982E-03
    27 0.20908589042715E-03
    28 0.69196135612932E-04
    29 0.58516512684570E-04
    30 -.45213874565110E-04
    31 -.13302638119460E-04
    32 -.11948653620957E-04
    33 -.34118699142669E-05
    34 -.16226165239711E-05
    35 -.91137663344132E-03
    36 -.20614876747558E-03
    37 0.37481807538013E-03
    38 0.10484185222200E-03
    39 -.33788399659839E-04
    40 0.14828498407202E-04
    41 -.44139426258115E-03
    42 0.21748574881927E-03
    43 -.80759534178636E-04
    44 0.57350592442627E-05
    45 0.43165780286194E-05
    46 -.10051637272882E-04
    47 -.32770651244701E-04
    48 0.96040956100796E-05
    49 -.66401780987424E-05
    50 0.98879992564051E+00
    51 -.40739331366776E-01
    52 0.17765649657699E-01
    53 -.60246427525124E-03
    54 0.27815444488474E-02
    55 -.11976106090130E-02
    56 0.95701054155696E-03
    57 0.20292325795954E-03
    58 0.16002826296797E-02
    59 0.48957391205800E-03
    60 -.35103577405275E-03
    61 -.13853813800525E-03
    62 -.15819056342407E-03
    63 -.44153498398881E-03
    64 -.30110186012427E-03
    65 -.23279868050326E-03
    66 -.10595890617951E-02
    67 0.56851270212271E-04
    68 0.12557208179944E-03
    69 -.10328587488391E-03
    70 0.17494022192682E-02
    71 -.70295162710368E-02
    72 -.12620264548877E-02
    73 0.56145958624684E-03
    74 -.24987245428753E-02
    75 0.14928902078016E-03
    76 0.11700284663814E-03
    77 -.49644812534890E-04
    78 0.30643098200974E-04
    79 0.41547549751616E-04
    80 0.30356798796801E-02
    81 -.19503152782146E-02
    82 0.45519979088194E-03
    83 0.33562893111250E-02
    84 0.10709754890335E-02
    85 0.57119190330725E-04
    86 0.39973713218422E-03
    87 -.71704643589517E-04
    88 0.11458024969824E-03
    89 -.11219342891328E-03
    90 -.10252771827450E-03
    91 -.17210172873284E-04
    92 -.10362202055340E-03
    93 -.28018594911991E-05
    94 0.13370828291863E-05
 Sym=     5a   
 Ene= -.92443361934050E+01
 Spin= Alpha
 Occup= 2.000000
     1 -.31185110053222E+00
     2 0.10219871083315E+01
     3 0.48541429963334E-01
     4 -.20133061261973E-01
     5 -.83927294723485E-04
     6 0.23798221992004E-03
     7 0.11822819011826E-02
     8 -.12466597668750E-03
     9 -.77419675755393E-04
    10 -.13417677427233E-02
    11 0.41590220115234E-03
    12 0.90727364491964E-04
    13 0.32234866442914E-02
    14 0.52496127617634E-04
    15 0.83822863505570E-04
    16 -.13631899112320E-03
    17 0.18521740137941E-04
    18 -.57545482921522E-04
    19 0.81856611967921E-05
    20 0.69374771293627E-04
    21 0.70090131848547E-03
    22 -.19984619116767E-02
    23 0.39840600477641E-04
    24 -.46425221880769E-04
    25 0.22238015087797E-03
    26 0.18233607278047E-04
    27 0.22596378438158E-03
    28 -.11729819518957E-02
    29 0.65331353561548E-05
    30 0.25146823800764E-04
    31 -.31679959156919E-04
    32 -.53083644118267E-05
    33 0.36272821449292E-04
    34 0.70578450642418E-05
    35 0.71919900289727E-04
    36 0.74166273006778E-03
    37 -.20720741172459E-02
    38 -.29492710233376E-04
    39 -.23728500763383E-05
    40 0.22775551873794E-03
    41 0.12197198463086E-03
    42 -.24088130790534E-03
    43 -.11794985769548E-02
    44 0.23760198574204E-04
    45 -.33995347748045E-05
    46 -.20360663799400E-04
    47 -.10517263531499E-05
    48 -.32510939509394E-05
    49 -.46648792187693E-04
    50 0.75520288038262E-04
    51 0.87406217539369E-03
    52 -.30547323535148E-02
    53 0.25999000257284E-04
    54 0.46321089969193E-04
    55 0.17540654370577E-03
    56 -.50922859191005E-03
    57 -.86952556568451E-04
    58 -.14195372437443E-02
    59 0.13124648980331E-04
    60 0.34423239057630E-04
    61 -.47547888037960E-04
    62 0.62249722674733E-05
    63 -.43163154663332E-04
    64 0.12493282125425E-04
    65 -.29629559039828E-04
    66 -.85341491648162E-03
    67 0.38868720379572E-04
    68 0.19501792105355E-04
    69 -.56823618180838E-04
    70 0.79941950061734E-03
    71 0.49856994700752E-02
    72 0.42006807469001E-04
    73 0.18614773643503E-04
    74 0.15288674330710E-03
    75 0.58706400188416E-04
    76 -.90124474299440E-03
    77 0.15442621307727E-04
    78 -.23575485277101E-04
    79 -.54657443292864E-04
    80 0.43670262384795E-04
    81 -.11176918005852E-02
    82 -.37845048242432E-04
    83 -.69619075377951E-05
    84 -.48909707438130E-04
    85 0.50227133669833E-03
    86 0.28166672965303E-02
    87 0.87345326932432E-04
    88 0.23060365963567E-03
    89 0.13996602751758E-03
    90 0.35556262010827E-03
    91 0.31335669149950E-02
    92 -.19995062643144E-03
    93 0.88474785419132E-04
    94 0.13600642449952E-03
 Sym=     6a   
 Ene= -.69803095940114E+01
 Spin= Alpha
 Occup= 2.000000
     1 0.50568115467438E-03
     2 -.19765022208256E-02
     3 0.25679395669536E-02
     4 -.40089230097232E-02
     5 0.10563830887730E-02
     6 0.14058695652678E+00
     7 0.97109981164093E+00
     8 -.16455082762898E-03
     9 -.71067689242220E-02
    10 -.49680084025960E-01
    11 0.31679361159726E-03
    12 0.10806621778156E-02
    13 0.91387249352197E-02
    14 0.18641461622419E-04
    15 0.44184100032412E-04
    16 -.62825561654832E-04
    17 0.16047950606263E-04
    18 -.47510697451149E-04
    19 0.15454098001700E-04
    20 0.53283264913111E-04
    21 0.51427002300261E-03
    22 -.13144889803281E-02
    23 0.35539545789375E-04
    24 -.40079590779945E-04
    25 0.18021003969545E-03
    26 -.22495341996883E-06
    27 0.13149132461222E-03
    28 -.65300751110926E-03
    29 -.11392593918531E-04
    30 0.31035348002709E-06
    31 0.11082240438504E-04
    32 -.67361015292371E-05
    33 0.28359910676140E-04
    34 -.79149646401916E-05
    35 0.55388316253948E-04
    36 0.54795389180559E-03
    37 -.13711255849196E-02
    38 -.23214369068950E-04
    39 -.17506769974518E-04
    40 0.19373307341228E-03
    41 0.73268913133115E-04
    42 -.10856805525038E-03
    43 -.65315516580700E-03
    44 -.23965913062888E-05
    45 -.24041495565099E-04
    46 0.26438086871388E-04
    47 0.29873191358895E-05
    48 -.81341458609572E-05
    49 -.32116569966246E-04
    50 0.59437419909005E-04
    51 0.62448050358403E-03
    52 -.16880950333606E-02
    53 0.39915293856659E-04
    54 0.19333831905371E-04
    55 0.20293709400354E-03
    56 -.24377843603469E-03
    57 -.12742585549704E-03
    58 -.70386281432418E-03
    59 -.24149401386239E-04
    60 0.21624721399971E-06
    61 0.23933154172240E-04
    62 0.33743962290505E-05
    63 0.35453410495989E-05
    64 0.18089900276112E-05
    65 -.69329358974324E-04
    66 -.43710859561666E-03
    67 0.43545004080233E-04
    68 0.16737138033226E-04
    69 -.45025489249220E-04
    70 0.66171602251828E-03
    71 0.30254998983174E-02
    72 0.37623496745108E-03
    73 -.17530539760139E-03
    74 0.48025624249644E-03
    75 -.37762126832202E-04
    76 -.47392737796774E-03
    77 0.21681246980804E-05
    78 -.35736101058461E-04
    79 -.49376096586858E-04
    80 -.50961627799366E-04
    81 -.68937796579793E-03
    82 -.49807207508833E-04
    83 -.12944664420708E-05
    84 -.61990094191917E-04
    85 0.37904820337544E-03
    86 0.19417595590425E-02
    87 0.63635125561990E-04
    88 0.42169196100384E-03
    89 0.30028246107966E-03
    90 0.29230396664429E-03
    91 0.20274859067553E-02
    92 -.33925512137990E-03
    93 -.98713423895158E-05
    94 0.28165966032624E-03
 Sym=     7a   
 Ene= -.69794876227895E+01
 Spin= Alpha
 Occup= 2.000000
     1 -.15261062926350E-04
     2 0.15071974153669E-04
     3 0.41701729121153E-03
     4 -.88827391484783E-03
     5 0.94429285144628E+00
     6 -.26454630551661E+00
     7 0.37224008687898E-01
     8 -.47707657767619E-01
     9 0.13389227606014E-01
    10 -.20176440282785E-02
    11 0.77090288557076E-02
    12 -.22297023819926E-02
    13 0.78694857910817E-03
    14 0.13301706407432E-04
    15 0.22697610321511E-04
    16 -.35999316728943E-04
    17 0.41140315207826E-04
    18 -.97106800563379E-04
    19 0.34622617957593E-04
    20 -.45384107603169E-04
    21 -.45336908178772E-03
    22 0.14261149592981E-02
    23 -.63996827005804E-04
    24 0.85309700365115E-05
    25 -.99182698676350E-04
    26 0.13455331285650E-03
    27 -.71547354526311E-04
    28 0.57409510711359E-03
    29 -.34662036260670E-05
    30 -.40502307048625E-05
    31 0.75164343309296E-05
    32 0.14120051630295E-05
    33 -.19501359016719E-04
    34 0.24545488539015E-05
    35 -.26559895223617E-05
    36 -.12580899378232E-04
    37 0.64772448389959E-05
    38 -.22885386562160E-06
    39 0.23304997134605E-04
    40 -.24268913752869E-04
    41 -.42365614598812E-04
    42 -.13308612303039E-03
    43 0.13560448763401E-03
    44 -.13581544567207E-05
    45 -.58062292846336E-05
    46 0.71643837413543E-05
    47 -.18636447613067E-05
    48 0.14933077452689E-04
    49 0.18920749849820E-05
    50 0.56932398524015E-04
    51 0.63674920052910E-03
    52 -.22260021495054E-02
    53 0.22692706991353E-04
    54 0.46792005459465E-04
    55 0.10837399191197E-03
    56 -.27017230564775E-03
    57 -.13009229857903E-03
    58 -.93867054672159E-03
    59 0.21719709453003E-04
    60 0.19346251054208E-04
    61 -.41065960507210E-04
    62 -.35061766198087E-05
    63 -.87203346955475E-05
    64 0.91539833665973E-05
    65 -.12188443020127E-04
    66 -.67805412951532E-04
    67 0.47493360270110E-04
    68 0.53527628053274E-05
    69 -.84547732498927E-04
    70 0.36356380280539E-03
    71 0.37361077939869E-02
    72 -.85045489110160E-04
    73 0.73086783750145E-05
    74 0.13020895706848E-03
    75 0.83053044819168E-04
    76 0.44330596442635E-03
    77 -.36488427652411E-05
    78 -.87253800741560E-05
    79 0.61093005848705E-04
    80 0.16341090482384E-04
    81 -.64961345168204E-03
    82 -.26926806586599E-04
    83 -.16011344387664E-04
    84 -.20876212014416E-05
    85 -.11745981740451E-04
    86 -.53843066413117E-03
    87 -.43168323290761E-04
    88 -.51991832417402E-04
    89 -.11991830170521E-04
    90 -.72217687188170E-04
    91 -.21508942372968E-02
    92 0.13156979086568E-03
    93 -.13414190478098E-04
    94 -.48076727045439E-04
 Sym=     8a   
 Ene= -.69792659901430E+01
 Spin= Alpha
 Occup= 2.000000
     1 0.50294360283663E-05
     2 0.44665637783888E-06
     3 -.19704205916626E-03
     4 0.39912035877047E-03
     5 0.26717355616622E+00
     6 0.93453950425877E+00
     7 -.13556667319172E+00
     8 -.13415568097961E-01
     9 -.47080646521540E-01
    10 0.68809298379538E-02
    11 0.19320090680123E-02
    12 0.72920288409036E-02
    13 -.12382917732917E-02
    14 0.32920915311088E-04
    15 -.50284727502952E-04
    16 0.17363812191864E-04
    17 -.62722280741340E-05
    18 0.51685405473318E-05
    19 -.48763686025743E-04
    20 -.32485392320117E-04
    21 -.33622841237540E-03
    22 0.10539745081233E-02
    23 -.36916161675544E-04
    24 0.24554038397310E-04
    25 -.67643135059698E-04
    26 0.41848113256778E-04
    27 -.11425343783575E-03
    28 0.45807714094397E-03
    29 -.55052008756134E-05
    30 -.11379995077976E-04
    31 0.16885195953590E-04
    32 0.97845209316725E-06
    33 -.15576978562895E-04
    34 0.65327493541220E-05
    35 0.52135287356300E-04
    36 0.52660573789359E-03
    37 -.16428117455440E-02
    38 -.35401208341255E-04
    39 -.57499392075549E-04
    40 0.12488436761365E-03
    41 0.14883975863491E-03
    42 0.68726661876964E-04
    43 -.70404023510699E-03
    44 0.52715834485571E-05
    45 0.45419044484151E-05
    46 -.98134878969721E-05
    47 0.27272804273945E-05
    48 -.31165083368219E-05
    49 -.20236796965760E-04
    50 -.22218314540645E-04
    51 -.26351332927312E-03
    52 0.99893275782916E-03
    53 0.13329966349491E-04
    54 -.10704613615055E-04
    55 -.45442376865267E-04
    56 0.10249421571934E-03
    57 0.28929373484029E-04
    58 0.36972412409918E-03
    59 0.17546807730637E-05
    60 -.67247305415907E-05
    61 0.49700497685271E-05
    62 0.10341583571065E-04
    63 0.19112808125532E-04
    64 0.18129028516106E-04
    65 0.46232420339132E-04
    66 0.30115502458236E-03
    67 -.20953209311470E-04
    68 -.38709418290512E-05
    69 0.18737649757444E-04
    70 -.15539104287637E-03
    71 -.15073842731138E-02
    72 -.93169837630608E-04
    73 -.15713832377887E-03
    74 -.26124170754209E-05
    75 0.20259948891707E-04
    76 -.23285308765712E-03
    77 0.20567799392505E-04
    78 0.20326973315848E-04
    79 0.48664304939873E-04
    80 -.10766558872611E-03
    81 0.12250766088716E-03
    82 -.15190942754226E-04
    83 0.91644961023348E-05
    84 -.47351599353175E-04
    85 0.13338165229444E-03
    86 0.25332235677890E-02
    87 0.69196129867095E-06
    88 0.16400894147840E-03
    89 0.33694348799939E-04
    90 -.85714063410768E-04
    91 -.16268286280374E-02
    92 0.10812855022923E-03
    93 -.81469123033950E-04
    94 -.22837908841430E-04
 Sym=     9a   
 Ene= -.85724366412823E+00
 Spin= Alpha
 Occup= 2.000000
     1 0.19695964918329E-02
     2 -.12160463284137E-01
     3 0.16208953413389E-01
     4 0.67410904678217E-02
     5 0.80041682306759E-04
     6 0.14063014987456E-03
     7 -.29689617103326E-02
     8 0.16916773886995E-04
     9 0.23943078043277E-03
    10 -.51384850671164E-02
    11 0.12440844923641E-02
    12 -.11261396526742E-03
    13 -.28803795015255E-02
    14 -.27562069530110E-03
    15 -.42169016778966E-03
    16 0.69731086309076E-03
    17 0.69605354030485E-04
    18 -.31916798575199E-03
    19 0.13086490839613E-04
    20 0.24085551624707E+00
    21 0.47775865303699E+00
    22 0.23185710559599E+00
    23 -.93206003371949E-01
    24 0.76988578455357E-02
    25 0.42049475813740E-01
    26 0.44472500001257E-02
    27 -.19451037347021E-02
    28 -.10704469008011E-02
    29 0.13883173826022E-02
    30 -.16261233491563E-02
    31 0.23780596655405E-03
    32 -.10402286899596E-02
    33 -.52072588727093E-04
    34 -.11369542537474E-02
    35 0.74066167780456E-01
    36 0.14754367766422E+00
    37 0.68282227668860E-01
    38 0.15490708050389E-01
    39 0.25574650057503E-01
    40 0.12485366454843E-01
    41 -.21651478036476E-02
    42 0.24118385391444E-02
    43 0.19541879673666E-02
    44 -.13509887485747E-03
    45 -.88652574003253E-04
    46 0.22375144886072E-03
    47 0.71524138713606E-03
    48 -.43685783590448E-03
    49 0.10646188066565E-03
    50 0.10410827553986E+00
    51 0.20430528729609E+00
    52 0.94361188775079E-01
    53 0.11918167301975E-01
    54 -.40052241584191E-01
    55 0.14670162758664E-01
    56 0.17580668782496E-02
    57 0.17639766298019E-02
    58 -.27468963266038E-02
    59 -.57535701884224E-03
    60 0.60878570907846E-03
    61 -.33428690236229E-04
    62 0.16609912221891E-03
    63 0.56192950848757E-03
    64 0.23802712174479E-03
    65 0.19245925994517E+00
    66 0.10076647304938E-01
    67 0.26310150817763E-01
    68 -.13461037362860E-01
    69 0.13414238186782E-01
    70 0.75603737234195E-01
    71 0.77145446578111E-02
    72 -.36477258843684E-02
    73 -.62829322854091E-03
    74 -.12638316907810E-01
    75 0.63051005064551E-01
    76 0.19065722347992E-01
    77 -.52706140286642E-02
    78 -.28734568012573E-03
    79 0.58307537999555E-02
    80 0.84583032067029E-01
    81 0.37224196797328E-02
    82 0.37752379719835E-02
    83 0.11598699153403E-01
    84 0.66894904893813E-02
    85 0.51807013743569E-01
    86 0.35854416303625E-03
    87 0.16293294059741E-02
    88 -.28769614105779E-03
    89 -.88998933952373E-02
    90 0.16199051561420E+00
    91 0.34910688546157E-02
    92 0.35526020186367E-03
    93 0.77388355023083E-02
    94 -.28616296599698E-01
 Sym=    10a   
 Ene= -.83945533980498E+00
 Spin= Alpha
 Occup= 2.000000
     1 0.17258395789940E-02
     2 -.10695810386660E-01
     3 0.15648287226609E-01
     4 0.28045799634463E-02
     5 -.19561516895045E-02
     6 0.26465806736285E-03
     7 -.25510391579928E-02
     8 -.34643365583372E-02
     9 0.62916832419440E-03
    10 -.47525291602940E-02
    11 -.14045698112259E-02
    12 -.56983973224688E-03
    13 -.24176555793127E-03
    14 -.16196788249426E-03