 operating system is UNIX !

 force (missouri) : TURBOMOLE V7.2 ( 21454 ) 4 Oct 2017 at 12:24:43
 Copyright (C) 2017 TURBOMOLE GmbH, Karlsruhe


    2018-02-09 23:11:18.919 



                             T U R B O M O L E   

                          a o f o r c e - program

                        using direct algorithms for

                       SCF level calculations of
                         * harmonic force constants
                         * hyperpolarizabilities
                         * IR and RAMAN intensities
                         * VCD intensities

                       DFT level calculations of
                         * harmonic force constants
                         * IR intensities
                                                   
       Stephan Boecker, Peter Deglmann, Filipp Furche and Marco Haeser
                          Quantum Chemistry Group
                          Universitaet  Karlsruhe
                                   Germany

 
 
 
 
     References :
 
       RI-J implementation:
         Peter Deglmann, Klaus May, Filipp Furche, Reinhart Ahlrichs
                 Chem. Phys. Lett. 384:103 (2004)
 
       Efficiency, technical details:
         Peter Deglmann, Filipp Furche, Reinhart Ahlrichs
                 Chem. Phys. Lett. 362:511 (2002)
 
       Search of lowest eigenvalues by iterative diagonalization:
         Peter Deglmann, Filipp Furche
                 J. Chem. Phys. 117:9535 (2002)
 
       Vibrational circular dichroism implementation:
        Kevin Reiter, Michael Kuehn, Florian Weigend
                 J. Chem. Phys. 146:054102 (2017)  
 
 


              +--------------------------------------------------+
              | Atomic coordinate, charge and isotop information |
              +--------------------------------------------------+

                    atomic coordinates            atom    charge  isotop
        -12.81326362    6.80434797    0.00592155    o      8.000     0
        -10.86850843    5.50473282    0.00248321    c      6.000     0
         -8.33158310    6.66257169    0.00818714    c      6.000     0
         -6.09648816    5.18991266    0.00442541    c      6.000     0
         -6.19582695    2.53006865   -0.00518860    c      6.000     0
         -8.59681158    1.36928577   -0.01080393    c      6.000     0
        -10.80232369    2.77096701   -0.00720334    c      6.000     0
         -3.01574052    6.21970728    0.00989254    s     16.000     0
         -2.04088203    3.03325119   -0.00089535    c      6.000     0
         -3.85743954    1.35819214   -0.00794891    n      7.000     0
          0.62814140    2.55118634   -0.00110951    c      6.000     0
          1.62172812   -0.65347050   -0.01192292    s     16.000     0
          2.37112900    4.30961577    0.00601401    n      7.000     0
          4.77842890    3.37421045    0.00378700    c      6.000     0
          4.85153858    0.44331398   -0.00654966    c      6.000     0
          5.88164244   -0.23422142    1.67679113    h      1.000     0
          5.88319214   -0.22229299   -1.69369434    h      1.000     0
          6.72982503    4.59495367    0.00895577    o      8.000     0
         -8.16626259   10.16649456    0.02066051    br    35.000     0
         -8.66873928   -0.69892501   -0.01827649    h      1.000     0
        -12.64716089    1.83818228   -0.01170121    h      1.000     0
 
       center of nuclear mass  :   -4.07565568    5.04232738    0.00485988
       center of nuclear charge:   -3.93038526    4.82618579    0.00417403

              +--------------------------------------------------+
              |               basis set information              |
              +--------------------------------------------------+

              we will work with the 1s 3p 5d 7f 9g ... basis set
              ...i.e. with spherical basis functions...

   type   atoms  prim   cont   basis
   ---------------------------------------------------------------------------
    o        2     24     14   def2-SV(P)   [3s2p1d|7s4p1d]
    c       10     24     14   def2-SV(P)   [3s2p1d|7s4p1d]
    s        2     36     18   def2-SV(P)   [4s3p1d|10s7p1d]
    n        2     24     14   def2-SV(P)   [3s2p1d|7s4p1d]
    h        4      4      2   def2-SV(P)   [2s|4s]
    br       1     74     32   def2-SV(P)   [5s4p3d|14s10p6d]
   ---------------------------------------------------------------------------
   total:   21    498    272
   ---------------------------------------------------------------------------

   total number of primitive shells          :   88
   total number of contracted shells         :  120
   total number of cartesian basis functions :  291
   total number of SCF-basis functions       :  272


 symmetry group of the molecule :   c1 

 the group has the following generators :
   c1(z)

    1 symmetry operations found

 there are 1 real representations :   a   

 maximum number of shells which are related by symmetry :  1


 determining totally symmetric integral contributions 
    - equivalent to irreducible tensor elements - 
 which can be formed within each triple of representations :

             representation triple      contributions

              a     a     a               1

 reading cartesian hessian from $hessian,
 file=<hessian>


 actual cartesian coordinates & gradients will be read from $grad 

            ----------------------------
            actual cartesian coordinates
            ----------------------------
    1 o     -12.81326361794053      6.80434797172474      0.00592154665377
    2 c     -10.86850842599756      5.50473282064000      0.00248321042474
    3 c      -8.33158310295922      6.66257168983890      0.00818714335912
    4 c      -6.09648816202437      5.18991266004274      0.00442540613228
    5 c      -6.19582695424898      2.53006865367314     -0.00518859766359
    6 c      -8.59681158295534      1.36928577012574     -0.01080392940822
    7 c     -10.80232368941682      2.77096700783274     -0.00720334382939
    8 s      -3.01574051979508      6.21970728497932      0.00989253700798
    9 c      -2.04088203017231      3.03325119397280     -0.00089535462289
   10 n      -3.85743954036912      1.35819213514773     -0.00794890515129
   11 c       0.62814140344329      2.55118633819433     -0.00110950963378
   12 s       1.62172811598284     -0.65347050321286     -0.01192291806861
   13 n       2.37112900307174      4.30961576679482      0.00601400668477
   14 c       4.77842889544723      3.37421045333102      0.00378699697799
   15 c       4.85153858220043      0.44331398203393     -0.00654966328815
   16 h       5.88164244263175     -0.23422141886030      1.67679113111655
   17 h       5.88319214164001     -0.22229299119026     -1.69369434140523
   18 o       6.72982503196185      4.59495366927855      0.00895577128424
   19 br     -8.16626259322375     10.16649455948367      0.02066050924497
   20 h      -8.66873928336418     -0.69892500734559     -0.01827649339807
   21 h     -12.64716088992465      1.83818228087613     -0.01170120803111

              --------------------------
              actual cartesian gradients
              --------------------------
    1 o      -0.00000019448333     -0.00001191464119     -0.00000445332715
    2 c       0.00000010643243      0.00001130005939      0.00000087750980
    3 c       0.00000028227027      0.00000332999572     -0.00000618675204
    4 c      -0.00000455817035     -0.00001136190180      0.00001983940533
    5 c       0.00000678859605      0.00000039566848     -0.00000545223299
    6 c       0.00000350949211      0.00000013808364      0.00000886621533
    7 c      -0.00001251203979      0.00000501350202     -0.00000067004092
    8 s      -0.00000109446894      0.00001020167570     -0.00000051891258
    9 c      -0.00000717676591     -0.00000926155627     -0.00000129897840
   10 n      -0.00000029288434      0.00000082014050     -0.00000648920343
   11 c       0.00000587587427     -0.00000758141136     -0.00000223484327
   12 s      -0.00000266607636     -0.00000208184140      0.00000083027336
   13 n      -0.00000000232228      0.00001223122483      0.00001561618516
   14 c       0.00000661351226     -0.00001183222305     -0.00000471456519
   15 c      -0.00000729328766      0.00000581793777     -0.00000322115279
   16 h       0.00000144517851     -0.00000444549361      0.00000210727933
   17 h      -0.00000056210985     -0.00000231753619     -0.00000432213938
   18 o      -0.00000041447520      0.00000278566425     -0.00000113714936
   19 br     -0.00000081975803     -0.00000251154873     -0.00000462064801
   20 h       0.00000132574292     -0.00000352435051     -0.00000157055318
   21 h      -0.00000050947403      0.00000089681662     -0.00000132682242

 dipole moment read from <control>

                -----------------------
                permanent dipole moment
                -----------------------
             x              y             z
          9.6465479    -12.4070855     -0.0109777      (debyes)

 dipole derivatives read from <dipgrad>

        ----------------------------------------------------
        cartesian dipole derivative matrix (debyes/angstrom)
        ----------------------------------------------------

  atom       1 o                              2 c 
            x          y          z          x          y          z
 
  x     -9.453196   3.045197   0.000766  10.611565  -4.302643  -0.008132
  y      4.255810  -3.195159  -0.004245  -4.823337   1.446971  -0.001658
  z     -0.059781  -0.016671  -1.898887   0.006175   0.006436   1.072573

  atom       3 c                              4 c 
            x          y          z          x          y          z
 
  x     -2.892115   0.384871  -0.000468  -1.084272   2.576755   0.016628
  y     -3.062408   6.222602   0.025621  -4.749382   1.737544  -0.000669
  z     -0.135320   0.096940  -0.649740   0.049822   0.044225  -0.037941

  atom       5 c                              6 c 
            x          y          z          x          y          z
 
  x     -3.233002  -0.204561  -0.005846   1.535548   3.377600   0.016925
  y      8.171448  -5.262157  -0.013996  -0.685091   1.462220   0.012283
  z      0.034749  -0.010189  -0.037629   0.060583  -0.062596  -0.444606

  atom       7 c                              8 s 
            x          y          z          x          y          z
 
  x     -1.982168  -1.638021  -0.008584   2.740160  -2.532859  -0.006124
  y      1.899337   0.374259   0.006859   0.000344  -0.978971  -0.002788
  z      0.171145  -0.075838  -1.395613   0.022704  -0.016641   0.549550

  atom       9 c                             10 n 
            x          y          z          x          y          z
 
  x     -6.482314   4.102063   0.017197   3.389499  -1.909790   0.000892
  y      2.597139   0.147114   0.003221  -3.381722  -1.084010  -0.004600
  z      0.064899   0.000626  -0.041684   0.155717   0.003715  -0.989360

  atom      11 c                             12 s 
            x          y          z          x          y          z
 
  x      9.949808  -4.858347  -0.010535  -0.602101   1.097352   0.003376
  y     -1.794134   5.924749   0.014481   0.975427  -3.006360  -0.005514
  z      0.054393  -0.006869  -0.017244   0.075646   0.006385  -0.366790

  atom      13 n                             14 c 
            x          y          z          x          y          z
 
  x     -9.746556   0.751102  -0.003630  12.501869   0.950353   0.004782
  y      1.447977  -3.912759  -0.016666   0.495584   5.292976   0.017206
  z      0.009153   0.017456  -1.098995  -0.075047   0.076201   0.835806

  atom      15 c                             16 h 
            x          y          z          x          y          z
 
  x      1.140152   0.375704  -0.001742  -0.522963   0.183464  -0.296110
  y      0.249314  -2.306872  -0.006756   0.200995   0.397323   0.120557
  z     -0.054967  -0.018912   0.500829  -0.412360   0.257420  -0.036461

  atom      17 h                             18 o 
            x          y          z          x          y          z
 
  x     -0.554598   0.259492   0.294413  -9.849732  -1.365241  -0.024695
  y      0.025630   0.411584  -0.129085  -3.941220  -3.524458  -0.013846
  z      0.318158  -0.206365  -0.043661   0.154308  -0.028691  -1.892886

  atom      19 br                            20 h 
            x          y          z          x          y          z
 
  x     -0.017914  -0.111697  -0.006090   0.284185   0.183210   0.004325
  y      2.047190  -4.589951  -0.014687  -0.089705  -0.547252   0.000686
  z     -0.056317   0.047480   0.045166  -0.068535   0.051937   0.501406

  atom      21 h 
            x          y          z
 
  x     -0.404731  -0.401065   0.001433
  y     -0.243895   0.142265  -0.005745
  z      0.079712  -0.085349   0.616439
 

             -----------------------------------
             rotational and vibrational analysis
             -----------------------------------


            ==============================================================
            ATOMIC WEIGHTS (average over the natural occurance of isotops)
            ==============================================================
            ('*' denotes special isotop !)
              1     o                15.99940
              2     c                12.01115
              3     c                12.01115
              4     c                12.01115
              5     c                12.01115
              6     c                12.01115
              7     c                12.01115
              8     s                32.06400
              9     c                12.01115
             10     n                14.00670
             11     c                12.01115
             12     s                32.06400
             13     n                14.00670
             14     c                12.01115
             15     c                12.01115
             16     h                 1.00797
             17     h                 1.00797
             18     o                15.99940
             19     br               79.90900
             20     h                 1.00797
             21     h                 1.00797

          -------------------------------------------------
          CARTESIAN FORCE CONSTANT MATRIX (hartree/bohr**2)
         (translational & rotational space projected out)
          -------------------------------------------------

   ATOM              1 o                           2 c 
                  dx        dy        dz        dx        dy        dz
   1 o     dx  0.5423397
           dy -0.2975927 0.2865800
           dz -0.0012508 0.0012754 0.0329984
   2 c     dx -0.4468590 0.2378199 0.0012498 0.7194358
           dy  0.2516896-0.2576327-0.0009266-0.1940239 0.6765544
           dz  0.0003226-0.0006812-0.0694687-0.0002094 0.0017422 0.1884062
   3 c     dx -0.0924699 0.0141047-0.0000407-0.1446128-0.0383230-0.0001248
           dy  0.0137605 0.0166617-0.0001290-0.0453500-0.1224258-0.0002622
           dz -0.0006098 0.0005668 0.0199497 0.0005311-0.0005209-0.0742666
   4 c     dx -0.0029021-0.0038260 0.0000586-0.0241375 0.0040433-0.0002706
           dy -0.0132157-0.0045167 0.0001555 0.0201875 0.0494268 0.0000253
           dz -0.0000120-0.0001313 0.0002436 0.0000322-0.0001008 0.0090925
   5 c     dx -0.0055103 0.0105894 0.0000581 0.0027955-0.0285039-0.0001090
           dy  0.0104638 0.0042342-0.0002318-0.0289253-0.0373597 0.0002053
           dz -0.0000477-0.0000364-0.0016381-0.0001275 0.0001334-0.0015427
   6 c     dx  0.0029951-0.0206522-0.0000387 0.0239034 0.0663554 0.0002904
           dy -0.0042323-0.0045577-0.0004277 0.0336723-0.0166706 0.0009733
           dz  0.0000711 0.0000346 0.0044403-0.0000195-0.0000652 0.0017737
   7 c     dx -0.0007173 0.0617304 0.0000821-0.1214997-0.0452052 0.0005931
           dy  0.0330509-0.0528687 0.0000080 0.0045741-0.2423951-0.0005037
           dz  0.0004799-0.0004964 0.0202994-0.0004559-0.0003126-0.0738513
   8 s     dx  0.0024859 0.0010099 0.0000744-0.0044634-0.0008231 0.0000014
           dy  0.0008190 0.0004581-0.0001291 0.0037982 0.0006383 0.0000423
           dz  0.0003283-0.0002666 0.0000644-0.0002865 0.0005421 0.0028388
   9 c     dx -0.0149802 0.0057516 0.0000805 0.0283187 0.0061512-0.0001796
           dy  0.0036135 0.0014878 0.0000376-0.0106097-0.0083575-0.0001394
           dz  0.0002312 0.0001792 0.0003183-0.0001351 0.0000572-0.0008462
  10 n     dx  0.0082781-0.0054959 0.0000153-0.0162850 0.0031162 0.0001063
           dy -0.0017864-0.0004838 0.0000930 0.0048895 0.0031953 0.0000224
           dz  0.0001798-0.0003281 0.0004960-0.0001182-0.0001123-0.0019695
  11 c     dx  0.0112980-0.0028808-0.0000131-0.0243150-0.0067198 0.0000718
           dy -0.0010687 0.0005411 0.0000764 0.0014617 0.0006746 0.0003168
           dz  0.0003842-0.0003604 0.0001893-0.0005722 0.0000922-0.0014173
  12 s     dx -0.0001899-0.0001823-0.0000039 0.0010228 0.0006675 0.0001586
           dy  0.0018897-0.0008756-0.0000878-0.0029430 0.0000511 0.0000804
           dz  0.0004222-0.0002280-0.0000705-0.0004375 0.0003244 0.0003958
  13 n     dx -0.0067133 0.0018401-0.0001645 0.0133496 0.0015316 0.0001134
           dy -0.0005832-0.0001760-0.0000467 0.0025411 0.0010894-0.0002053
           dz  0.0004016 0.0000087 0.0002518-0.0002261-0.0000493-0.0002213
  14 c     dx  0.0054890-0.0022677-0.0000326-0.0102044 0.0010951-0.0001532
           dy -0.0022738 0.0009216 0.0000047 0.0041283 0.0002347-0.0000010
           dz  0.0001682-0.0002069 0.0002644 0.0000970 0.0004123-0.0003534
  15 c     dx -0.0001687-0.0000081-0.0000123 0.0003409 0.0007121 0.0000871
           dy  0.0005096 0.0000504-0.0001455-0.0014012-0.0005436-0.0002112
           dz  0.0002654-0.0000119-0.0003220-0.0002503 0.0001206 0.0007773
  16 h     dx -0.0000637 0.0000711-0.0000274 0.0001197-0.0001836-0.0000394
           dy  0.0000044-0.0000278 0.0001416 0.0002492 0.0001012-0.0000874
           dz  0.0001323-0.0000824-0.0000179-0.0000475-0.0003010-0.0001390
  17 h     dx -0.0011991 0.0004946 0.0001593 0.0017944-0.0004555-0.0002292
           dy  0.0002444-0.0000389-0.0002965-0.0004564 0.0002740 0.0003819
           dz -0.0020482 0.0013126 0.0002197 0.0013784-0.0011494 0.0000030
  18 o     dx -0.0018668 0.0009352 0.0001006 0.0033296-0.0014717 0.0000689
           dy -0.0016605 0.0009748 0.0003738 0.0019300-0.0010742-0.0002078
           dz  0.0004434-0.0004753-0.0000942-0.0002475 0.0005325-0.0000904
  19 br    dx -0.0008817-0.0022619-0.0001741 0.0024090-0.0237525 0.0002292
           dy  0.0030589 0.0070536 0.0001879-0.0021662-0.0391366-0.0003308
           dz -0.0001368 0.0000928-0.0030791-0.0000747-0.0005913 0.0076694
  20 h     dx -0.0006375 0.0017747-0.0001031-0.0039003 0.0005274-0.0000239
           dy  0.0008377-0.0016599 0.0000328 0.0019433 0.0024430-0.0006316
           dz -0.0000471 0.0000119-0.0011494 0.0003335-0.0000148 0.0079255
  21 h     dx  0.0022734-0.0009538-0.0000175-0.0005423 0.0035727-0.0007038
           dy  0.0024714 0.0038744 0.0000341-0.0313191-0.0090869-0.0005282
           dz  0.0003222-0.0001771-0.0038956-0.0004141 0.0001873 0.0052844

   ATOM              3 c                           4 c 
                  dx        dy        dz        dx        dy        dz
   3 c     dx  0.5229478
           dy -0.0495558 0.4673622
           dz  0.0002942 0.0011937 0.0906607
   4 c     dx -0.2204435 0.0888008 0.0000753 0.5636850
           dy  0.0691740-0.1507267-0.0002853-0.0595091 0.5966730
           dz -0.0003438-0.0003026-0.0446845 0.0002428 0.0016917 0.1121264
   5 c     dx  0.0087747 0.0238554-0.0000862-0.0868552-0.0190100-0.0001089
           dy  0.0562102-0.0245520-0.0002738-0.0272766-0.2809897-0.0004711
           dz  0.0002665 0.0002464 0.0091148 0.0002155-0.0010186-0.0728294
   6 c     dx -0.0227910-0.0033946 0.0000389-0.0085890-0.0418293-0.0003745
           dy -0.0005285-0.0055905-0.0001611-0.0331853-0.0212009 0.0001899
           dz  0.0000375-0.0000854-0.0020660-0.0001129 0.0000464 0.0075388
   7 c     dx  0.0137420-0.0225379-0.0001095-0.0011660 0.0226162 0.0002460
           dy -0.0313827-0.0237996-0.0001352-0.0048317-0.0190374-0.0000397
           dz -0.0000997-0.0001730 0.0095661 0.0001627-0.0000042-0.0021240
   8 s     dx -0.0410630 0.0079670-0.0000167-0.1522328-0.0739793-0.0003508
           dy -0.0001311 0.0150576-0.0000756-0.0265078-0.0762326-0.0001568
           dz  0.0000494-0.0000202-0.0011617-0.0002802-0.0003258-0.0334083
   9 c     dx -0.0181236-0.0157543-0.0002328-0.0464506-0.0125957-0.0003828
           dy -0.0068148 0.0077043-0.0001765 0.0510598-0.0101573-0.0001654
           dz  0.0001304-0.0002248 0.0012892-0.0000884-0.0000886 0.0077082
  10 n     dx  0.0229534-0.0020876 0.0003892-0.0304003 0.0819102 0.0005363
           dy  0.0005297-0.0093414 0.0000980 0.0113691-0.0383960-0.0000209
           dz  0.0000227-0.0000557 0.0029415 0.0000182-0.0000210 0.0106719
  11 c     dx  0.0065756 0.0131404 0.0001510 0.0176755 0.0157397 0.0002309
           dy -0.0007346-0.0020802 0.0000753-0.0010208-0.0074959-0.0001556
           dz  0.0000254 0.0001775 0.0004766 0.0003003-0.0001144 0.0002092
  12 s     dx -0.0001319-0.0013922-0.0000068-0.0012936 0.0001081 0.0001997
           dy  0.0006906 0.0008421-0.0000368-0.0004108 0.0029550 0.0001579
           dz  0.0000349-0.0001159 0.0004224 0.0001663 0.0002387-0.0000015
  13 n     dx -0.0023738-0.0073155-0.0003186-0.0091509-0.0099614-0.0000326
           dy -0.0002165-0.0003432-0.0002002-0.0021835-0.0017465-0.0001232
           dz -0.0001937 0.0001412 0.0001725 0.0000015 0.0000907 0.0013128
  14 c     dx  0.0017808 0.0053953 0.0000301 0.0060600 0.0082612-0.0002686
           dy -0.0009179-0.0006705 0.0001150-0.0015590-0.0028771 0.0001514
           dz -0.0000745-0.0003298 0.0002405-0.0002994-0.0000772 0.0003409
  15 c     dx  0.0004263-0.0005820-0.0000383-0.0014978 0.0004494-0.0000642
           dy  0.0001733 0.0009284-0.0000810 0.0010401 0.0004053 0.0000475
           dz  0.0000867-0.0000346-0.0002223-0.0001561 0.0000729-0.0013964
  16 h     dx -0.0002105-0.0001347 0.0000377 0.0000588-0.0000821-0.0004529
           dy  0.0001305-0.0003845-0.0000273-0.0004822 0.0003852-0.0000710
           dz -0.0001646 0.0000492-0.0000184 0.0002971-0.0002009 0.0001007
  17 h     dx -0.0006494-0.0003844-0.0000044 0.0002640-0.0011847 0.0003973
           dy  0.0009411-0.0004248 0.0001735-0.0009607 0.0004729 0.0000515
           dz  0.0005438 0.0002727 0.0000707-0.0001850 0.0001022 0.0000803
  18 o     dx -0.0003722-0.0022627 0.0000228-0.0024873-0.0044213 0.0000951
           dy -0.0001245-0.0005298 0.0000234-0.0006272-0.0011560-0.0002574
           dz -0.0002079-0.0000336-0.0002208 0.0000417 0.0001744 0.0000062
  19 br    dx -0.0329439-0.0020087-0.0002081 0.0035119 0.0191808 0.0003055
           dy -0.0143335-0.1639291-0.0003337 0.0085866-0.0344388-0.0002267
           dz -0.0000770-0.0003018-0.0153032 0.0001929-0.0002236 0.0010903
  20 h     dx -0.0001079 0.0002930 0.0000647-0.0046570-0.0017025 0.0000765
           dy -0.0000178 0.0008169-0.0000432-0.0026546-0.0003986 0.0000046
           dz -0.0003410-0.0001323-0.0007175-0.0004212-0.0003625 0.0044924
  21 h     dx -0.0009071-0.0004524-0.0000037 0.0010082-0.0001359 0.0000287
           dy  0.0011263-0.0045753 0.0001048 0.0001356-0.0009480-0.0000721
           dz  0.0001764 0.0001202 0.0037565 0.0000407 0.0001245-0.0005701

   ATOM              5 c                           6 c 
                  dx        dy        dz        dx        dy        dz
   5 c     dx  0.7256187
           dy  0.0736243 0.6318719
           dz  0.0008737 0.0020029 0.1415163
   6 c     dx -0.2703631-0.0749816-0.0006424 0.7157346
           dy -0.1068818-0.1680459-0.0003448-0.0347905 0.7357639
           dz -0.0009100-0.0005724-0.0639151 0.0004600 0.0021460 0.1382459
   7 c     dx -0.0535155-0.0146565-0.0000984-0.3244440 0.1535637 0.0000935
           dy  0.0135126 0.0397755-0.0004473 0.1054274-0.2097479-0.0002120
           dz  0.0003133 0.0001490 0.0089730 0.0001810-0.0005290-0.0544308
   8 s     dx -0.0214192-0.0455589-0.0004296 0.0090099 0.0022920-0.0000368
           dy -0.0044056-0.0253192-0.0001710-0.0021864-0.0039321 0.0000940
           dz -0.0000955-0.0000718 0.0100511 0.0000750 0.0000093 0.0035866
   9 c     dx -0.1301815 0.0326813-0.0000671-0.0006796 0.0063075 0.0003199
           dy -0.0421073-0.0064846-0.0001961 0.0195626 0.0027470 0.0000202
           dz -0.0003478-0.0001857 0.0010123 0.0001643-0.0000315 0.0015631
  10 n     dx -0.1827564 0.0640033 0.0001584-0.0519800 0.0085830 0.0001892
           dy  0.0738936-0.1272294-0.0004041-0.0176884 0.0173785-0.0001531
           dz  0.0004755-0.0001639-0.0505916-0.0003005-0.0008767 0.0004560
  11 c     dx  0.0234967-0.0354857 0.0000035 0.0070244 0.0011053-0.0000772
           dy -0.0064117-0.0015775 0.0002059 0.0000516 0.0012387-0.0000818
           dz -0.0000126 0.0000552 0.0054624-0.0002519 0.0002761 0.0004709
  12 s     dx -0.0033776 0.0013733-0.0001273-0.0001390 0.0001535 0.0000505
           dy  0.0034875-0.0039466-0.0000074 0.0005527 0.0003053-0.0001183
           dz -0.0001387-0.0000033-0.0006884-0.0003456 0.0003286-0.0001080
  13 n     dx -0.0095267 0.0185991 0.0000788-0.0062854-0.0007238-0.0000743
           dy  0.0003976 0.0054127-0.0002992-0.0025241-0.0009960 0.0000291
           dz -0.0000327 0.0000045 0.0009438-0.0001177 0.0002222 0.0002935
  14 c     dx  0.0062375-0.0157278 0.0003042 0.0039826 0.0001445 0.0000976
           dy -0.0037603 0.0038801 0.0005100-0.0010268 0.0000096 0.0001210
           dz -0.0004555 0.0000492 0.0000550-0.0000634-0.0001101 0.0002519
  15 c     dx -0.0001139 0.0001924 0.0000738-0.0002903-0.0001276 0.0001934
           dy  0.0013437-0.0016065-0.0003597 0.0004427-0.0001369 0.0000199
           dz -0.0000391-0.0002269-0.0001269-0.0000110-0.0001366-0.0000247
  16 h     dx -0.0000913 0.0005314-0.0000486 0.0000326 0.0001560-0.0000295
           dy -0.0000534-0.0000153 0.0000417-0.0001004-0.0000452 0.0002394
           dz  0.0000221 0.0001891-0.0000530 0.0002275 0.0001793-0.0001854
  17 h     dx -0.0020245 0.0015064-0.0000337 0.0016779 0.0002157-0.0002592
           dy  0.0004894 0.0001749 0.0001404-0.0010332-0.0000340 0.0001414
           dz  0.0003055-0.0001622 0.0001150 0.0003998-0.0005841 0.0001582
  18 o     dx -0.0019736 0.0083606-0.0003650-0.0023574 0.0000563-0.0001205
           dy  0.0007220 0.0025463-0.0002741-0.0004196-0.0003974-0.0001887
           dz  0.0004480-0.0000936-0.0001738-0.0001565 0.0003297-0.0000422
  19 br    dx -0.0026065-0.0010853-0.0002810-0.0001166 0.0001632 0.0002948
           dy  0.0031537 0.0012849 0.0002563 0.0055595 0.0012974-0.0002319
           dz -0.0000662-0.0000798 0.0019315 0.0003585-0.0004954-0.0002483
  20 h     dx  0.0036635-0.0284529-0.0000129-0.0580486-0.0118216-0.0000536
           dy  0.0031027-0.0111590-0.0000451-0.0138694-0.3378020-0.0012186
           dz -0.0000804-0.0000182 0.0061935-0.0000432-0.0010014-0.0390741
  21 h     dx -0.0002714 0.0046044 0.0003066-0.0182765-0.0141215-0.0001140
           dy  0.0029620-0.0008951 0.0000668 0.0165446 0.0104167 0.0000355
           dz -0.0000133-0.0001007 0.0061900 0.0001499 0.0000443 0.0013160

   ATOM              7 c                           8 s 
                  dx        dy        dz        dx        dy        dz
   7 c     dx  0.7725787
           dy -0.0263067 0.6294253
           dz  0.0003325 0.0016650 0.1101305
   8 s     dx -0.0050813 0.0041827-0.0001321 0.2806602
           dy  0.0019219-0.0020513-0.0000923 0.0402420 0.2850391
           dz -0.0001952-0.0002887-0.0003582 0.0004234 0.0008692 0.0390090
   9 c     dx  0.0066947-0.0068686-0.0000531-0.0358794 0.0082061 0.0000705
           dy -0.0048631 0.0085490-0.0000690 0.0272207-0.1172216-0.0002590
           dz  0.0000711 0.0002449 0.0015618 0.0001350-0.0001331-0.0357828
  10 n     dx -0.0014411-0.0045990-0.0004197-0.0128581-0.0377227-0.0001975
           dy  0.0002060-0.0067598 0.0000476 0.0074040-0.0636030-0.0002538
           dz -0.0001977-0.0002344 0.0025528-0.0001238-0.0005271 0.0156350
  11 c     dx -0.0068881 0.0086236-0.0000974-0.0221333 0.0205188 0.0000902
           dy  0.0006766 0.0009778-0.0003020 0.0338647-0.0122205 0.0001293
           dz  0.0007911 0.0000358 0.0002285 0.0000251 0.0001057 0.0014296
  12 s     dx -0.0003663-0.0011951-0.0000433-0.0006857-0.0021696 0.0000290
           dy -0.0003485 0.0010583 0.0001166-0.0036950 0.0011180 0.0000109
           dz  0.0000670-0.0002405-0.0001789-0.0001676-0.0001628 0.0011224
  13 n     dx  0.0019944-0.0052215 0.0001601 0.0103827-0.0040750-0.0000781
           dy  0.0013062-0.0023998 0.0003497 0.0030145-0.0016048-0.0000292
           dz  0.0001355-0.0000813-0.0000825-0.0000724-0.0001513-0.0014504
  14 c     dx  0.0004403 0.0023603 0.0005034-0.0076476 0.0010228 0.0002488
           dy  0.0008651-0.0011432-0.0002931 0.0018990-0.0006266-0.0001049
           dz -0.0002226 0.0001923 0.0000907 0.0001996 0.0003102-0.0012700
  15 c     dx  0.0000499-0.0002515 0.0001488 0.0003605-0.0012169-0.0001037
           dy -0.0001356 0.0007509-0.0001211-0.0011394 0.0009855 0.0000528
           dz  0.0000733-0.0000224-0.0002744 0.0000595-0.0002717 0.0012292
  16 h     dx -0.0001685 0.0000443-0.0000423-0.0002026 0.0000599 0.0003653
           dy  0.0001401-0.0000370-0.0000192-0.0001131-0.0001906-0.0001337
           dz -0.0001086 0.0001518-0.0000472 0.0000182 0.0002877 0.0000961
  17 h     dx -0.0003215 0.0003244-0.0000159-0.0004910-0.0005144-0.0003401
           dy  0.0006892-0.0004510 0.0001154 0.0000926-0.0001269 0.0000932
           dz -0.0004215 0.0003570 0.0002165 0.0000153-0.0000074 0.0000272
  18 o     dx -0.0010569-0.0004382-0.0004553 0.0027564 0.0010953-0.0001982
           dy -0.0010007 0.0000362 0.0001151 0.0005432 0.0009861 0.0000800
           dz  0.0001754-0.0002599 0.0001351-0.0000155-0.0001119-0.0000344
  19 br    dx -0.0037639 0.0003425-0.0001170-0.0012663 0.0023454 0.0000471
           dy -0.0084358 0.0082091 0.0001417-0.0050148-0.0008529-0.0000823
           dz -0.0006187 0.0002199 0.0013377-0.0000084 0.0001401-0.0012417
  20 h     dx  0.0061391 0.0263982 0.0000351-0.0003186-0.0006840-0.0001058
           dy -0.0035549-0.0122032-0.0000475-0.0000112-0.0002467-0.0000422
           dz -0.0000053-0.0000254 0.0058794 0.0004982 0.0000925-0.0002394
  21 h     dx -0.2812092-0.1177460-0.0003852 0.0000865-0.0004160 0.0001537
           dy -0.1166708-0.1158880-0.0002406 0.0006026-0.0000538 0.0000914
           dz -0.0006831-0.0003842-0.0296242-0.0000962 0.0000485-0.0001424

   ATOM              9 c                          10 n 
                  dx        dy        dz        dx        dy        dz
   9 c     dx  0.6894231
           dy  0.0788886 0.4660946
           dz  0.0010512 0.0012232 0.1161704
  10 n     dx -0.2022037-0.1723235-0.0011139 0.5476230
           dy -0.1428882-0.2309736-0.0005150 0.0839983 0.4432711
           dz -0.0012909-0.0006260-0.0528523 0.0005768 0.0015027 0.0707078
  11 c     dx -0.2060114 0.0556902-0.0000657-0.0986040-0.0234654-0.0001888
           dy  0.0464798-0.0979979-0.0008446-0.0254576 0.0089645-0.0001128
           dz  0.0001867 0.0000626-0.0494930 0.0001050-0.0002639 0.0026860
  12 s     dx -0.0133055 0.0298943-0.0001393 0.0069721 0.0001647 0.0002454
           dy  0.0169820-0.0134951-0.0001018-0.0064543 0.0014760 0.0001242
           dz -0.0001137-0.0001910 0.0032735 0.0004988 0.0000865-0.0012604
  13 n     dx -0.0767308-0.0257640 0.0000290 0.0178940 0.0011976 0.0002742
           dy -0.0234567 0.0086169 0.0002439 0.0092763 0.0025079 0.0004575
           dz -0.0002846-0.0001398-0.0009753 0.0003001 0.0002134 0.0000229
  14 c     dx  0.0131403-0.0089839 0.0000585-0.0087403 0.0102068 0.0007507
           dy -0.0146721-0.0040422-0.0000377 0.0078211 0.0022421 0.0001693
           dz  0.0002477-0.0000539 0.0059172 0.0001199-0.0002216-0.0002571
  15 c     dx -0.0001828 0.0024445 0.0002251 0.0004483-0.0004991-0.0001120
           dy  0.0062180-0.0041490-0.0000438-0.0037471-0.0003890-0.0001469
           dz  0.0004585-0.0002589 0.0021740-0.0002160-0.0001540 0.0003212
  16 h     dx  0.0001557 0.0010022 0.0002638 0.0002981-0.0002951 0.0003854
           dy -0.0011605 0.0001346 0.0005817 0.0004329 0.0005883 0.0000930
           dz  0.0004511 0.0001113-0.0003370-0.0001801-0.0003218 0.0001431
  17 h     dx -0.0007696 0.0003426-0.0000567 0.0019791 0.0002984-0.0007532
           dy -0.0007379 0.0007286-0.0002741-0.0001335 0.0001041-0.0001102
           dz  0.0000305 0.0003214 0.0000331-0.0004679 0.0002802 0.0000383
  18 o     dx  0.0074112 0.0026404-0.0001995-0.0025048-0.0102163-0.0004858
           dy  0.0072162 0.0023287 0.0000684-0.0037570-0.0048267-0.0003631
           dz -0.0006890 0.0000687 0.0000230-0.0001298 0.0000893 0.0007903
  19 br    dx  0.0023217-0.0014468-0.0001885-0.0006129 0.0024385 0.0002357
           dy  0.0055054-0.0060443-0.0000598 0.0008377 0.0008148-0.0000120
           dz  0.0003982 0.0001332-0.0001019-0.0002004-0.0001066 0.0005582
  20 h     dx -0.0012365-0.0003193 0.0000006 0.0037491 0.0012608 0.0001316
           dy -0.0011896 0.0001092-0.0001088 0.0013317 0.0009947 0.0012047
           dz -0.0002761 0.0000490-0.0007977 0.0001984 0.0002714-0.0022940
  21 h     dx -0.0007303 0.0008726-0.0000253-0.0018085-0.0010180 0.0002752
           dy -0.0010643 0.0004224 0.0000506 0.0004675 0.0004655 0.0001388
           dz  0.0002747 0.0002480 0.0001423-0.0002685-0.0002899 0.0012040

   ATOM             11 c                          12 s 
                  dx        dy        dz        dx        dy        dz
  11 c     dx  0.7216894
           dy  0.1116647 0.4937411
           dz  0.0010664 0.0017761 0.1066214
  12 s     dx -0.0492107 0.0281995 0.0001169 0.2372516
           dy  0.0082177-0.1233790 0.0000178 0.0227863 0.2658341
           dz  0.0000753-0.0001212-0.0261789 0.0000504 0.0009282 0.0355000
  13 n     dx -0.2504967-0.1788852-0.0009062 0.0075019-0.0196981-0.0003320
           dy -0.1574690-0.2667121-0.0013441 0.0021665-0.0611555-0.0006043
           dz -0.0004111-0.0006283-0.0458190-0.0000175-0.0002857 0.0178931
  14 c     dx -0.0905914-0.0427339 0.0008771-0.0266244-0.0057980-0.0010122
           dy -0.0116790 0.0139844 0.0011879-0.0227778-0.0170721-0.0004676
           dz -0.0002985 0.0001564 0.0019582 0.0000172-0.0002156-0.0060659
  15 c     dx -0.0272045 0.0242990 0.0000577-0.1304466-0.0189617 0.0001535
           dy  0.0109716 0.0009601-0.0000630-0.0377064-0.0545671-0.0002335
           dz -0.0001987-0.0000429 0.0002391-0.0003876-0.0004951-0.0395829
  16 h     dx -0.0037572-0.0023763-0.0015900-0.0162608 0.0052372-0.0137896
           dy -0.0003530-0.0039039-0.0007670-0.0097196 0.0045634-0.0077135
           dz  0.0009319-0.0005929-0.0001661 0.0022632-0.0018680 0.0063478
  17 h     dx -0.0040349-0.0025484 0.0012948-0.0161546 0.0049313 0.0137320
           dy  0.0000038-0.0036506 0.0001906-0.0097159 0.0046276 0.0078665
           dz -0.0008057 0.0011553-0.0007268-0.0019692 0.0019698 0.0067829
  18 o     dx -0.0046082 0.0142796-0.0012062 0.0051367-0.0066754 0.0008403
           dy -0.0015080-0.0023661-0.0008733-0.0015921-0.0074883 0.0004703
           dz -0.0001519-0.0009126 0.0034080-0.0001814 0.0000624 0.0025699
  19 br    dx -0.0011888 0.0004228-0.0001998-0.0000384-0.0001023 0.0001194
           dy -0.0077651 0.0008055 0.0001123 0.0007275-0.0009101-0.0000174
           dz -0.0002452 0.0001398 0.0008784-0.0000898-0.0001194-0.0001434
  20 h     dx  0.0007876-0.0000336 0.0001785-0.0002181 0.0001670-0.0000200
           dy  0.0006175-0.0004770-0.0001352-0.0001705-0.0000819-0.0001757
           dz  0.0000734-0.0000553-0.0003162-0.0001883-0.0000305 0.0000011
  21 h     dx  0.0004972-0.0001294-0.0006703 0.0005581 0.0001451 0.0001968
           dy  0.0010325-0.0000272-0.0001684 0.0003801 0.0001404 0.0000314
           dz -0.0001411-0.0001812-0.0001402 0.0000234-0.0001019-0.0000300

   ATOM             13 n                          14 c 
                  dx        dy        dz        dx        dy        dz
  13 n     dx  0.6443075
           dy  0.1030865 0.4700387
           dz  0.0005388 0.0012638 0.0634227
  14 c     dx -0.2307217 0.0651921 0.0000995 0.9274993
           dy  0.0944060-0.1528212-0.0002595 0.2189216 0.5816867
           dz -0.0001684-0.0004824-0.0670442 0.0013117 0.0013477 0.2107561
  15 c     dx -0.0215061 0.0170612 0.0000561-0.0605947 0.0094941-0.0004437
           dy  0.0230831-0.0269037-0.0002729 0.0236820-0.1192543 0.0001994
           dz  0.0000190-0.0003828 0.0174646-0.0020837-0.0011688-0.0830508
  16 h     dx  0.0023878 0.0009305 0.0003402-0.0023016 0.0027773 0.0011275
           dy  0.0015092-0.0043705-0.0028563 0.0147298-0.0088116 0.0271568
           dz  0.0016141 0.0007963-0.0007170 0.0016309-0.0015734 0.0039572
  17 h     dx  0.0026158 0.0004977 0.0000066-0.0009687 0.0034288-0.0002426
           dy  0.0018132-0.0046450 0.0028472 0.0144866-0.0085359-0.0273460
           dz -0.0018849-0.0006455-0.0003269-0.0000341 0.0018920 0.0030107
  18 o     dx -0.0870035-0.0192894-0.0002968-0.5258034-0.2838040-0.0010313
           dy  0.0004331 0.0348603-0.0000114-0.2877896-0.2868673-0.0007497
           dz  0.0009045 0.0009051 0.0150739-0.0013440-0.0009156-0.0686887
  19 br    dx  0.0004802 0.0001519-0.0001769-0.0006912-0.0001439 0.0002499
           dy  0.0046003 0.0010838 0.0000374-0.0026307 0.0001491 0.0002998
           dz -0.0001285 0.0001161-0.0004177-0.0004322-0.0004643 0.0001119
  20 h     dx -0.0003804-0.0000373-0.0000461 0.0002766-0.0000468-0.0001979
           dy -0.0001556 0.0003161-0.0000051 0.0001665-0.0002167-0.0003053
           dz  0.0001122 0.0000108 0.0002225-0.0004421-0.0003031-0.0001386
  21 h     dx -0.0000244 0.0001375-0.0000044-0.0000171-0.0010802-0.0000409
           dy -0.0002999-0.0000514-0.0000883 0.0002670-0.0001697-0.0000253
           dz  0.0002439 0.0001905-0.0000196-0.0001099 0.0000900-0.0000861

   ATOM             15 c                          16 h 
                  dx        dy        dz        dx        dy        dz
  15 c     dx  0.4521104
           dy -0.0820903 0.3808388
           dz  0.0000367-0.0014247 0.5409480
  16 h     dx -0.1023553 0.0443376-0.1113763 0.1136383
           dy  0.0439056-0.0692879 0.0752798-0.0458493 0.0741935
           dz -0.1072577 0.0733071-0.2270510 0.1133974-0.0778405 0.2379871
  17 h     dx -0.1020902 0.0436499 0.1111791 0.0086520-0.0040063-0.0117872
           dy  0.0439434-0.0679746-0.0715505-0.0051343 0.0043902 0.0078872
           dz  0.1073062-0.0713636-0.2274906 0.0117571-0.0094585-0.0205612
  18 o     dx -0.0075750-0.0295154 0.0022331 0.0002549 0.0006016-0.0009969
           dy -0.0383133-0.0403317 0.0008304-0.0012510 0.0026766-0.0004355
           dz -0.0000244-0.0001970 0.0154592-0.0003505-0.0044149 0.0005226
  19 br    dx  0.0004205-0.0002900 0.0010813-0.0004191 0.0003453-0.0008748
           dy -0.0006343 0.0001041 0.0000390 0.0003186 0.0000128 0.0002909
           dz  0.0000116 0.0002901 0.0002955 0.0000584 0.0000015 0.0000795
  20 h     dx  0.0000014 0.0000380-0.0007852 0.0001901-0.0001605 0.0002997
           dy  0.0002510 0.0001486-0.0001459-0.0001550 0.0000466-0.0001081
           dz  0.0001575 0.0004505-0.0000945 0.0000083-0.0001525 0.0001117
  21 h     dx -0.0001322 0.0005358 0.0000113 0.0000425-0.0000501 0.0001320
           dy -0.0000682-0.0000280-0.0000150-0.0000048-0.0000180 0.0000746
           dz -0.0004511 0.0002968 0.0007282 0.0000055 0.0000064-0.0000526

   ATOM             17 h                          18 o 
                  dx        dy        dz        dx        dy        dz
  17 h     dx  0.1131821
           dy -0.0447238 0.0724784
           dz -0.1132200 0.0758534 0.2385384
  18 o     dx -0.0011918 0.0001765-0.0005624 0.6195661
           dy -0.0022864 0.0025995 0.0000434 0.3290889 0.2975454
           dz -0.0002413 0.0044669 0.0008296 0.0014575 0.0010169 0.0303116
  19 br    dx  0.0001415-0.0000659-0.0002513 0.0004339 0.0003181-0.0000475
           dy  0.0003946-0.0000510-0.0002504 0.0010324 0.0005605-0.0004017
           dz  0.0000118-0.0001585-0.0003855 0.0006464 0.0002276 0.0000787
  20 h     dx -0.0003757 0.0001445 0.0003391 0.0000530 0.0000057 0.0001828
           dy  0.0000225 0.0001139 0.0001438-0.0000460-0.0000048 0.0001336
           dz -0.0000386-0.0000094-0.0000607 0.0004599 0.0000254 0.0001124
  21 h     dx -0.0000358-0.0000633-0.0002255-0.0001408 0.0000727 0.0001339
           dy -0.0000029-0.0000316-0.0000826-0.0001265-0.0000721 0.0000370
           dz  0.0004414-0.0004638-0.0005721-0.0000068 0.0000863 0.0000241

   ATOM             19 br                         20 h 
                  dx        dy        dz        dx        dy        dz
  19 br    dx  0.0346182
           dy  0.0065576 0.2257606
           dz  0.0001343 0.0007611 0.0072475
  20 h     dx  0.0001538 0.0002396-0.0000054 0.0537176
           dy  0.0000956-0.0002100 0.0003066 0.0130909 0.3582552
           dz -0.0000425-0.0000266 0.0000628 0.0000600 0.0012071 0.0249742
  21 h     dx  0.0000383 0.0004083 0.0002712 0.0011489 0.0003650 0.0000243
           dy -0.0012043-0.0015634 0.0001121-0.0006814 0.0012155 0.0000132
           dz -0.0001361-0.0001532-0.0004204-0.0000148-0.0000211-0.0050934

   ATOM             21 h 
                  dx        dy        dz
  21 h     dx  0.2984425
           dy  0.1254524 0.1168734
           dz  0.0006568 0.0004303 0.0220009
 

   *** projected hessian written onto $hessian (projected), file=<hessian> ***

 dipole moment in principle axis system (a.u.) :
     5.5217930372    -2.7821425025     0.0107885244
 norm :   6.18309240126048     

 rotational constants b for rotations around axis of inertia
 and optical intensities for (1 <-- 0) transition

   b   :     0.0236700568     0.0050143483     0.0041410446   (cm**(-1))
   b   :         709.6105         150.3264         124.1454     (MHz)
  int. :    30.4901983458     7.7403169044     0.0001163923     (a.u.)

   x   :     0.9033834822     0.4288332586    -0.0005660075
   y   :    -0.4288324554     0.9033771243    -0.0035350431
   z   :    -0.0010046258     0.0034362220     0.9999935915

   ***  normal modes written onto $vibrational normal modes, file=<control>  ***

 keyword $vibrational reduced masses missing in file <control>


   ***  vibrational spectroscopic data written onto$vibrational spectrum   
        file=<control>  ***

          ---------------------------------------------------
          NORMAL MODES and VIBRATIONAL FREQUENCIES (cm**(-1))
          ---------------------------------------------------

 imaginary wave numbers indicate a negative curvature of the energy surface.
 zero frequency modes have no physical meaning except being generators of
 translations and rotations. each vibrational normal mode - given in terms of
 cartesian displacement vectors of all atoms - has been normalized to unity.
 to obtain mass-weigthed normal coordinates in a.u. divide the tabulated
 modes by sqrt(reduced mass * 1822.88853).
 band intensities or cross sections refer to independent non-degenerate normal
 modes, that is, the intensities of degenerate modes have yet to be added.
 dDIP/dQ is the normal mode derivative of the dipole moment.


       mode               1        2        3        4        5        6

     frequency           0.00     0.00     0.00     0.00     0.00     0.00

     symmetry                                                             

        IR                -        -        -        -        -        - 
|dDIP/dQ|   (a.u.)     0.0000   0.0000   0.0000   0.0000   0.0000   0.0000
intensity (km/mol)       0.00     0.00     0.00     0.00     0.00     0.00
intensity (  %   )       0.00     0.00     0.00     0.00     0.00     0.00
 
       RAMAN              -        -        -        -        -        - 
 
  1   o           x  -0.03109  0.03177  0.14534 -0.13697 -0.09459 -0.00210
                  y   0.21135 -0.16808  0.03810 -0.04131 -0.27900 -0.00641
                  z  -0.13802  0.02769 -0.12919 -0.02228 -0.20215  0.24815
  2   c           x  -0.03366  0.06317  0.13698 -0.12753 -0.07484 -0.00171
                  y   0.20741 -0.12107  0.02543 -0.02728 -0.24957 -0.00582
                  z  -0.10580  0.02001 -0.06754  0.01365 -0.15745  0.24244
  3   c           x  -0.03136  0.03520  0.14439 -0.13599 -0.09243 -0.00198
                  y   0.20256 -0.05981  0.00917 -0.00894 -0.21080 -0.00463
                  z  -0.14326  0.02587 -0.05993  0.04923 -0.19975  0.11787
  4   c           x  -0.03428  0.07078  0.13491 -0.12529 -0.07005 -0.00154
                  y   0.19804 -0.00579 -0.00538  0.00719 -0.17696 -0.00394
                  z  -0.10681  0.01716  0.01040  0.09044 -0.14912  0.11045
  5   c           x  -0.03955  0.13503  0.11785 -0.10593 -0.02963 -0.00083
                  y   0.19797 -0.00814 -0.00499  0.00643 -0.17881 -0.00438
                  z  -0.03250  0.00237  0.07684  0.09939 -0.05527  0.22265
  6   c           x  -0.04185  0.16308  0.11042 -0.09746 -0.01199 -0.00056
                  y   0.20255 -0.06611  0.01040 -0.01093 -0.21550 -0.00551
                  z   0.00476 -0.00354  0.07130  0.06598 -0.01294  0.34321
  7   c           x  -0.03908  0.12921  0.11944 -0.10764 -0.03329 -0.00098
                  y   0.20701 -0.11942  0.02476 -0.02684 -0.24890 -0.00619
                  z  -0.02977  0.00477  0.00321  0.02551 -0.06109  0.35265
  8   s           x  -0.03223  0.04590  0.14150 -0.13281 -0.08570 -0.00176
                  y   0.19211  0.06861 -0.02517  0.02945 -0.12994 -0.00256
                  z  -0.14182  0.02219  0.02924  0.13513 -0.18721 -0.02538
  9   c           x  -0.03855  0.12288  0.12104 -0.10963 -0.03727 -0.00089
                  y   0.18988  0.09222 -0.03175  0.03645 -0.11551 -0.00264
                  z  -0.05504  0.00422  0.12485  0.16318 -0.07542  0.07581
 10   n           x  -0.04187  0.16335  0.11031 -0.09743 -0.01182 -0.00047
                  y   0.19327  0.04837 -0.02018  0.02331 -0.14337 -0.00361
                  z  -0.00465 -0.00469  0.14100  0.14105 -0.01530  0.19974
 11   c           x  -0.03950  0.13453  0.11793 -0.10615 -0.02995 -0.00071
                  y   0.18460  0.15670 -0.04903  0.05572 -0.07494 -0.00164
                  z  -0.04708  0.00092  0.17625  0.20734 -0.05997  0.01455
 12   s           x  -0.04585  0.21195  0.09736 -0.08284  0.01876  0.00016
                  y   0.18234  0.18077 -0.05573  0.06286 -0.06022 -0.00171
                  z   0.04017 -0.01715  0.27260  0.23575  0.05246  0.11592
 13   n           x  -0.03601  0.09204  0.12920 -0.11896 -0.05667 -0.00116
                  y   0.18136  0.19878 -0.06012  0.06834 -0.04820 -0.00069
                  z  -0.09964  0.01031  0.15690  0.22797 -0.12298 -0.11056
 14   c           x  -0.03786  0.11464  0.12318 -0.11217 -0.04245 -0.00087
                  y   0.17654  0.25695 -0.07575  0.08571 -0.01169  0.00012
                  z  -0.07852  0.00455  0.21603  0.26978 -0.09139 -0.14527
 15   c           x  -0.04367  0.18545  0.10437 -0.09084  0.00209 -0.00008
                  y   0.17611  0.25877 -0.07648  0.08620 -0.01094 -0.00028
                  z   0.00299 -0.01178  0.29191  0.28254  0.01191 -0.02718
 16   h           x  -0.04156  0.20221  0.07533 -0.11260  0.01336  0.05129
                  y   0.22098  0.27429 -0.04018  0.10030  0.06407  0.06921
                  z   0.01975 -0.01579  0.32430  0.30153  0.03521 -0.03065
 17   h           x  -0.04845  0.20114  0.12478 -0.05933  0.01123 -0.05107
                  y   0.12707  0.29309 -0.12622  0.08697 -0.05475 -0.06914
                  z   0.01942 -0.01573  0.32401  0.30150  0.03479 -0.03119
 18   o           x  -0.03544  0.08515  0.13100 -0.12107 -0.06101 -0.00118
                  y   0.17283  0.30406 -0.08824  0.09983  0.01815  0.00107
                  z  -0.11653  0.01090  0.21346  0.29584 -0.13557 -0.25464
 19   br          x  -0.02442 -0.04945  0.16687 -0.16149 -0.14569 -0.00292
                  y   0.20258 -0.05589  0.00842 -0.00770 -0.20785 -0.00406
                  z  -0.24122  0.04535 -0.14695  0.03798 -0.32340 -0.03098
 20   h           x  -0.04595  0.21304  0.09715 -0.08241  0.01944 -0.00001
                  y   0.20249 -0.06781  0.01068 -0.01148 -0.21686 -0.00584
                  z   0.06253 -0.01504  0.12303  0.07302  0.06003  0.43029
 21   h           x  -0.04093  0.15175  0.11347 -0.10083 -0.01912 -0.00077
                  y   0.21053 -0.16397  0.03658 -0.04018 -0.27710 -0.00707
                  z   0.00000  0.00000  0.00000  0.00000 -0.02713  0.44696

reduced mass(g/mol)    19.505   11.134   14.972   14.047   23.965    8.549


       mode               7        8        9       10       11       12

     frequency          46.48    55.96    63.18    95.29   127.54   131.68

     symmetry            a        a        a        a        a        a   

        IR               YES      YES      YES      YES      YES      YES
|dDIP/dQ|   (a.u.)     0.0016   0.0010   0.0010   0.0004   0.0019   0.0008
intensity (km/mol)       4.53     1.84     1.80     0.32     6.63     1.12
intensity (  %   )       0.58     0.23     0.23     0.04     0.84     0.14
 
       RAMAN             YES      YES      YES      YES      YES      YES
 
  1   o           x  -0.00095  0.00175 -0.01161  0.00308 -0.01321 -0.09496
                  y   0.00899  0.02786 -0.13772 -0.00022 -0.02445 -0.14453
                  z   0.15118 -0.40200 -0.05115 -0.41714 -0.05356  0.03317
  2   c           x  -0.00294 -0.00514  0.03479  0.00387 -0.01109 -0.06148
                  y   0.00372  0.01496 -0.07278 -0.00026 -0.01692 -0.09723
                  z   0.13135 -0.20601 -0.02467 -0.14456  0.01316 -0.01905
  3   c           x   0.00019  0.00152 -0.00443  0.00274 -0.01318 -0.07900
                  y  -0.00120 -0.00264  0.01887  0.00325 -0.01517 -0.07900
                  z   0.04784 -0.00613  0.01046 -0.08272  0.06467 -0.06350
  4   c           x  -0.00296 -0.00806  0.04912  0.00538 -0.01532 -0.08610
                  y  -0.00686 -0.01749  0.09703  0.00621 -0.00904 -0.04613
                  z   0.06693  0.15141  0.04193 -0.05372  0.08361 -0.07997
  5   c           x  -0.00783 -0.02086  0.11885  0.00602 -0.00005  0.00278
                  y  -0.00708 -0.01727  0.09320  0.00426 -0.00725 -0.03229
                  z   0.09374  0.16563  0.03053  0.16789  0.02920 -0.02008
  6   c           x  -0.01035 -0.02822  0.16110  0.00671  0.00155  0.02368
                  y  -0.00186 -0.00115  0.00773  0.00079 -0.01443 -0.08091
                  z   0.13618  0.03545 -0.00249  0.34414  0.02810 -0.01399
  7   c           x  -0.00823 -0.02027  0.11585  0.00564 -0.00068  0.00194
                  y   0.00401  0.01453 -0.06888 -0.00121 -0.01951 -0.10692
                  z   0.16285 -0.13645 -0.02625  0.19056  0.03537 -0.02518
  8   s           x  -0.00308 -0.00649  0.04188  0.00657 -0.02736 -0.15489
                  y  -0.01080 -0.03014  0.16044  0.00543  0.02031  0.12392
                  z   0.09819  0.26078  0.08258 -0.28245  0.09024 -0.08735
  9   c           x  -0.00664 -0.01935  0.11265  0.00709 -0.00702 -0.03147
                  y  -0.01231 -0.03399  0.18149  0.00380  0.03228  0.18829
                  z   0.09504  0.25622  0.06172 -0.03922 -0.04030  0.04763
 10   n           x  -0.00867 -0.02493  0.14029  0.00589  0.00868  0.05744
                  y  -0.01010 -0.02783  0.14980  0.00446  0.01249  0.08089
                  z   0.09536  0.24050  0.04210  0.17969 -0.04812  0.05650
 11   c           x  -0.00647 -0.01686  0.09865  0.00641 -0.00872 -0.04149
                  y  -0.00622 -0.01918  0.09899 -0.00072  0.03855  0.21738
                  z   0.04609  0.14199  0.03258 -0.07486 -0.08239  0.08261
 12   s           x   0.01006  0.02625 -0.13930 -0.00023 -0.04273 -0.23402
                  y  -0.00042 -0.00490  0.01852 -0.00366  0.03360  0.17877
                  z  -0.37530 -0.03259 -0.02875 -0.11926 -0.12511  0.07307
 13   n           x  -0.01488 -0.03815  0.22124  0.01016  0.00212  0.02604
                  y   0.00024  0.00365 -0.02789 -0.00647  0.02804  0.14808
                  z   0.27514  0.08311  0.03598 -0.01301 -0.05914  0.08488
 14   c           x  -0.00994 -0.02616  0.15526  0.00847 -0.00640 -0.02031
                  y   0.01300  0.03794 -0.21615 -0.01154  0.00502  0.01119
                  z   0.16659 -0.15416 -0.02237  0.06266  0.00757  0.00246
 15   c           x   0.00497  0.01241 -0.06177  0.00233 -0.03313 -0.17988
                  y   0.01465  0.03901 -0.21962 -0.01311  0.00266  0.00849
                  z  -0.24132 -0.23367 -0.05748  0.04470  0.29326 -0.19346
 16   h           x   0.01913  0.13856 -0.08721 -0.08731 -0.33509 -0.02175
                  y  -0.21657  0.01099 -0.31307 -0.02507  0.16228 -0.15929
                  z  -0.34296 -0.32263 -0.08257  0.09574  0.54813 -0.36112
 17   h           x  -0.00206 -0.09620 -0.12885  0.09181  0.25683 -0.40111
                  y   0.25765  0.09121 -0.27057 -0.00466 -0.17601  0.07360
                  z  -0.34262 -0.32199 -0.07974  0.09741  0.54749 -0.35807
 18   o           x  -0.01529 -0.04282  0.24872  0.01042  0.00638  0.04806
                  y   0.02265  0.06668 -0.36626 -0.01462 -0.01410 -0.10182
                  z   0.35045 -0.30591 -0.05581  0.15539 -0.08668  0.03242
 19   br          x   0.01225  0.03140 -0.19110 -0.01650  0.04260  0.22621
                  y  -0.00067 -0.00443  0.02865  0.00433 -0.01978 -0.10584
                  z  -0.15616  0.00195 -0.01753  0.10886 -0.01826  0.01928
 20   h           x  -0.01707 -0.04527  0.23802  0.00838  0.00742  0.04497
                  y  -0.00182 -0.00167  0.00544 -0.00096 -0.01454 -0.08197
                  z   0.15819  0.05004 -0.01710  0.56340  0.00853  0.01033
 21   h           x  -0.00984 -0.02573  0.14447  0.00559  0.00199  0.01743
                  y   0.00759  0.02471 -0.12557 -0.00336 -0.02453 -0.13752
                  z   0.20670 -0.24951 -0.05452  0.28704  0.01788 -0.00418

reduced mass(g/mol)    12.867   11.238   13.380   10.789    3.593   14.054


       mode              13       14       15       16       17       18

     frequency         147.13   191.71   242.46   243.92   254.54   297.76

     symmetry            a        a        a        a        a        a   

        IR               YES      YES      YES      YES      YES      YES
|dDIP/dQ|   (a.u.)     0.0002   0.0013   0.0011   0.0015   0.0005   0.0015
intensity (km/mol)       0.07     3.15     2.26     3.84     0.39     3.85
intensity (  %   )       0.01     0.40     0.29     0.49     0.05     0.49
 
       RAMAN             YES      YES      YES      YES      YES      YES
 
  1   o           x  -0.00746  0.00106  0.43539 -0.04766 -0.01034  0.17116
                  y  -0.00755  0.00199  0.40806  0.39060 -0.02027  0.04699
                  z  -0.21406  0.14710 -0.00705 -0.00597 -0.15328  0.00066
  2   c           x  -0.00462 -0.00146  0.23501 -0.17936 -0.00159  0.14214
                  y  -0.00701  0.00066  0.10197  0.17680 -0.00710  0.00837
                  z   0.02000 -0.03267  0.01026  0.00824  0.16026  0.00140
  3   c           x  -0.00606 -0.00071  0.24252 -0.11034 -0.00368  0.10586
                  y  -0.00575 -0.00164 -0.06987 -0.04074  0.00115 -0.00341
                  z   0.16068  0.05456  0.02288  0.01805  0.49835  0.00111
  4   c           x  -0.00696 -0.00132  0.20521 -0.10998 -0.00276 -0.05507
                  y  -0.00487 -0.00133 -0.02126 -0.04883  0.00079 -0.28214
                  z   0.18926  0.17265  0.01645  0.00970  0.34465  0.00257
  5   c           x  -0.00084 -0.00047  0.08837 -0.09988 -0.00023 -0.02694
                  y  -0.00315 -0.00175 -0.01157 -0.02621  0.00078 -0.32020
                  z   0.03440  0.26316  0.00416  0.00049  0.12107 -0.00067
  6   c           x   0.00092 -0.00122  0.05111 -0.20992  0.00400 -0.09103
                  y  -0.00694  0.00031  0.07901  0.13070 -0.00482 -0.22919
                  z   0.10123 -0.11258 -0.00517 -0.00488 -0.11438 -0.00322
  7   c           x  -0.00099 -0.00134  0.06275 -0.22076  0.00371  0.02743
                  y  -0.00744  0.00158  0.12628  0.18697 -0.00684 -0.03184
                  z   0.15152 -0.34215  0.00215  0.00475 -0.05545 -0.00143
  8   s           x  -0.01219 -0.00204  0.17855 -0.15803  0.00062 -0.13099
                  y   0.00758  0.00341 -0.01010  0.01807  0.00087 -0.34679
                  z   0.18136 -0.07821 -0.00840 -0.00692 -0.18148 -0.00347
  9   c           x  -0.00153  0.00085  0.01555  0.00863 -0.00040 -0.01572
                  y   0.01357  0.00333  0.00339  0.02540  0.00020 -0.15875
                  z  -0.18831  0.07295 -0.01074 -0.00679 -0.16369  0.00056
 10   n           x   0.00444  0.00102  0.05933 -0.02492 -0.00185  0.04491
                  y   0.00668  0.00047 -0.04388  0.02950  0.00160 -0.28097
                  z  -0.22566  0.34200 -0.00994 -0.00907 -0.13360 -0.00083
 11   c           x  -0.00187  0.00056 -0.06670  0.10786 -0.00118  0.06216
                  y   0.01576  0.00377  0.06849  0.08277 -0.00542  0.18407
                  z  -0.25149 -0.13943  0.00363  0.00648  0.05639  0.00173
 12   s           x  -0.01346 -0.00272 -0.24776  0.17733  0.00178 -0.09019
                  y   0.01089  0.00245  0.10459  0.06072 -0.00577  0.25950
                  z   0.12771 -0.03006  0.00469  0.00058  0.02685  0.00183
 13   n           x   0.00281  0.00234 -0.10739  0.20363 -0.00205  0.10721
                  y   0.00981  0.00223  0.10808  0.01769 -0.00443  0.18603
                  z  -0.38753 -0.27184  0.01592  0.01353  0.25497  0.00167
 14   c           x   0.00058  0.00124 -0.14272  0.21510 -0.00108  0.09394
                  y   0.00007 -0.00104  0.07102 -0.04516 -0.00102  0.04518
                  z  -0.05642 -0.04704  0.00470  0.00262  0.06862 -0.00116
 15   c           x  -0.00942 -0.00064 -0.21672  0.17725  0.00171 -0.05821
                  y  -0.00042 -0.00093  0.05467 -0.02528 -0.00039  0.05940
                  z  -0.18540  0.02444 -0.01060  0.00164 -0.03468 -0.00184
 16   h           x   0.19777 -0.05068 -0.21931  0.16864  0.07397 -0.08744
                  y  -0.07323  0.04686  0.02270 -0.03787 -0.07809  0.01404
                  z  -0.34766  0.07411 -0.02318  0.00334 -0.11064 -0.00206
 17   h           x  -0.21887  0.05113 -0.24074  0.16978 -0.07207 -0.08694
                  y   0.06443 -0.05451  0.03762 -0.03513  0.07359  0.01001
                  z  -0.34620  0.07460 -0.01795 -0.00019 -0.11075  0.00150
 18   o           x   0.00253  0.00194 -0.13397  0.28074 -0.00448  0.22546
                  y  -0.00726 -0.00243  0.05024 -0.13980  0.00525 -0.15837
                  z   0.31530  0.15728 -0.00220 -0.00731 -0.10376  0.00019
 19   br          x   0.01492  0.00146 -0.09018 -0.01960  0.00274 -0.03882
                  y  -0.00611 -0.00311 -0.20523 -0.15547  0.00904  0.18451
                  z  -0.02736 -0.00723 -0.00240 -0.00138 -0.02702  0.00060
 20   h           x  -0.00019 -0.00394 -0.00339 -0.35092  0.00710 -0.27276
                  y  -0.00607 -0.00048  0.08094  0.13361 -0.00286 -0.22387
                  z   0.07646 -0.28402 -0.02224 -0.01885 -0.44343 -0.00657
 21   h           x  -0.00114 -0.00161  0.04537 -0.20926  0.00445 -0.04808
                  y  -0.00896  0.00215  0.16440  0.15995 -0.00533  0.11706
                  z   0.16076 -0.62694 -0.01446 -0.00416 -0.38029 -0.00219

reduced mass(g/mol)     9.997    7.275   17.479   13.010    8.777   17.659


       mode              19       20       21       22       23       24

     frequency         349.91   380.30   456.06   459.53   485.16   499.44

     symmetry            a        a        a        a        a        a   

        IR               YES      YES      YES      YES      YES      YES
|dDIP/dQ|   (a.u.)     0.0003   0.0021   0.0009   0.0006   0.0006   0.0031
intensity (km/mol)       0.12     7.67     1.37     0.65     0.55    16.80
intensity (  %   )       0.02     0.98     0.17     0.08     0.07     2.14
 
       RAMAN             YES      YES      YES      YES      YES      YES
 
  1   o           x   0.00032  0.44065 -0.21204  0.00303 -0.00276  0.19577
                  y   0.00004  0.17206  0.06900 -0.00066  0.00111  0.01440
                  z   0.17599  0.00044 -0.00075 -0.04113  0.00497  0.00026
  2   c           x   0.00112  0.27145 -0.13786  0.00284 -0.00256  0.02415
                  y   0.00175 -0.06306  0.14357 -0.00306  0.00025 -0.20398
                  z  -0.24567  0.00343  0.00592  0.05305 -0.05354  0.00173
  3   c           x   0.00102  0.10480 -0.06455  0.00044 -0.00118  0.00809
                  y   0.00135 -0.02916 -0.00784  0.00012 -0.00127 -0.06025
                  z  -0.28898  0.00003 -0.00234 -0.15717 -0.30135 -0.00144
  4   c           x  -0.00068 -0.11207 -0.02034 -0.00023 -0.00137 -0.00797
                  y  -0.00116 -0.16655 -0.11579  0.00069 -0.00384  0.07215
                  z   0.20938 -0.00236 -0.00806  0.01355  0.32163 -0.00550
  5   c           x  -0.00020  0.01503  0.16845 -0.00378  0.00019 -0.23675
                  y  -0.00126 -0.18260 -0.10564  0.00093 -0.00389  0.05391
                  z   0.30065 -0.00469 -0.00578  0.03079  0.14676 -0.00099
  6   c           x   0.00050  0.05385  0.07742 -0.00089 -0.00221 -0.22242
                  y  -0.00098 -0.25814  0.07922 -0.00184 -0.00160 -0.14362
                  z   0.28680 -0.00385 -0.00761 -0.24721 -0.21227 -0.00034
  7   c           x   0.00112  0.12969  0.08628 -0.00171 -0.00253 -0.28922
                  y   0.00198 -0.11566  0.14955 -0.00358 -0.00144 -0.24973
                  z  -0.23672  0.00157  0.00689  0.21641  0.22297 -0.00104
  8   s           x  -0.00312 -0.43366 -0.05919  0.00150  0.00352  0.13859
                  y  -0.00019  0.25382 -0.09111  0.00221  0.00148  0.04099
                  z   0.03446  0.00057  0.00346  0.04514 -0.05791  0.00188
  9   c           x  -0.00005 -0.00709  0.16340 -0.00322  0.00242 -0.07702
                  y   0.00128  0.19638  0.03505 -0.00007  0.00208  0.00421
                  z  -0.30717  0.00170 -0.00967 -0.20305  0.08202 -0.00367
 10   n           x  -0.00047  0.11379  0.24726 -0.00383  0.00435 -0.19695
                  y   0.00111  0.07843 -0.06028  0.00036  0.00146  0.10570
                  z  -0.21768  0.00141  0.01539  0.25430 -0.12855  0.00377
 11   c           x   0.00033 -0.03773  0.15306 -0.00344  0.00233  0.02119
                  y   0.00052 -0.04598 -0.01439  0.00040 -0.00154 -0.00379
                  z  -0.12963  0.00379 -0.02416 -0.36249  0.24033 -0.00595
 12   s           x   0.00083  0.07907 -0.23759  0.00697 -0.00492 -0.09644
                  y   0.00016 -0.19899 -0.10731  0.00181 -0.00543  0.07292
                  z   0.03265 -0.00120  0.00144  0.03622 -0.02312  0.00228
 13   n           x   0.00128 -0.01610  0.20572 -0.00697  0.00233  0.15636
                  y  -0.00083 -0.12361 -0.11103  0.00267 -0.00057 -0.14054
                  z   0.19600  0.00135  0.00662  0.13472 -0.06864  0.00624
 14   c           x   0.00162 -0.01768  0.21871 -0.00719  0.00322  0.22205
                  y  -0.00124 -0.05762  0.02163  0.00024  0.00296 -0.04052
                  z   0.09854 -0.00208  0.01266  0.16286 -0.10721 -0.00349
 15   c           x   0.00056  0.07099  0.01701 -0.00053 -0.00071  0.10850
                  y  -0.00186 -0.07814 -0.15737  0.00649  0.00267 -0.14284
                  z  -0.01230  0.00123  0.00305  0.01175 -0.00775 -0.00464
 16   h           x   0.07701  0.08661 -0.07632  0.09869 -0.05916  0.00316
                  y  -0.11532 -0.04960 -0.33880 -0.19863  0.14244 -0.29499
                  z  -0.10662  0.00383 -0.01186 -0.13494  0.08690  0.00169
 17   h           x  -0.07768  0.08872 -0.09068 -0.09773  0.05705  0.01835
                  y   0.11094 -0.05511 -0.30819  0.21976 -0.13631 -0.30879
                  z  -0.10684  0.00222 -0.00758 -0.13511  0.08648 -0.00088
 18   o           x  -0.00062 -0.12658 -0.03713  0.00054  0.00338  0.05908
                  y   0.00129  0.11215  0.46317 -0.01333  0.00554  0.25939
                  z  -0.08364 -0.00142 -0.00488 -0.08468  0.05154  0.00152
 19   br          x   0.00004 -0.01170 -0.00789  0.00043 -0.00024  0.01095
                  y  -0.00034  0.05377  0.00549  0.00036  0.00089  0.02436
                  z   0.00609  0.00012  0.00005  0.00472  0.00739  0.00012
 20   h           x   0.00067  0.00622 -0.13005  0.00485 -0.00626 -0.01403
                  y  -0.00138 -0.25673  0.08513 -0.00157  0.00019 -0.15301
                  z   0.49153 -0.00254 -0.01324 -0.60542 -0.63467 -0.00319
 21   h           x  -0.00078  0.06748  0.14024 -0.00481 -0.00232 -0.34175
                  y   0.00404  0.01012  0.03803  0.00033 -0.00209 -0.14566
                  z  -0.18578 -0.00115  0.00352  0.24187  0.34483 -0.00544

reduced mass(g/mol)     8.679   18.268   11.951    6.026    5.739    9.606


       mode              25       26       27       28       29       30

     frequency         543.53   555.96   576.97   584.49   631.19   641.72

     symmetry            a        a        a        a        a        a   

        IR               YES      YES      YES      YES      YES      YES
|dDIP/dQ|   (a.u.)     0.0014   0.0036   0.0014   0.0003   0.0002   0.0006
intensity (km/mol)       3.29    22.41     3.51     0.19     0.08     0.57
intensity (  %   )       0.42     2.85     0.45     0.02     0.01     0.07
 
       RAMAN             YES      YES      YES      YES      YES      YES
 
  1   o           x  -0.01523 -0.10380  0.01204  0.08140  0.00125  0.00074
                  y   0.20578  0.22877  0.02977  0.19190 -0.00039  0.00064
                  z   0.00076  0.00196  0.00802 -0.00135  0.05689 -0.05206
  2   c           x  -0.21992 -0.25767 -0.01852 -0.12258  0.00023 -0.00053
                  y  -0.11650 -0.04853 -0.02032 -0.12249  0.00027 -0.00084
                  z   0.00065 -0.00227 -0.02804  0.00507 -0.19228  0.18558
  3   c           x  -0.08247 -0.08090 -0.02151 -0.15441  0.00139 -0.00105
                  y  -0.15843 -0.18226 -0.00358  0.00224  0.00024  0.00057
                  z   0.00666 -0.00076  0.00120 -0.00123  0.06142 -0.08347
  4   c           x   0.01912  0.04048 -0.00722 -0.06553  0.00136 -0.00090
                  y  -0.08050 -0.15542  0.01863  0.15941  0.00063  0.00080
                  z  -0.01167  0.00349  0.05383 -0.00946  0.22842 -0.15915
  5   c           x   0.03636  0.13403  0.00711  0.06979  0.00052  0.00050
                  y  -0.12331 -0.19572  0.02397  0.19800  0.00241 -0.00050
                  z  -0.00056 -0.00208 -0.01882  0.00698 -0.20497  0.22580
  6   c           x  -0.04760  0.02001  0.02991  0.24618 -0.00043  0.00015
                  y  -0.10232 -0.08315  0.00494  0.05749  0.00258  0.00070
                  z   0.00769 -0.00165  0.00227 -0.00310 -0.02252  0.04078
  7   c           x  -0.19522 -0.10489  0.00058  0.05982 -0.00142 -0.00032
                  y  -0.19534 -0.12617 -0.03089 -0.19412 -0.00072 -0.00001
                  z  -0.00859 -0.00153 -0.00175  0.00126 -0.01101  0.01805
  8   s           x   0.11747  0.12058 -0.00728 -0.07799 -0.00119 -0.00020
                  y   0.07823  0.11701 -0.01987 -0.16361  0.00050 -0.00154
                  z   0.00305 -0.00036 -0.02231  0.00421 -0.05048 -0.01229
  9   c           x   0.09955  0.08431  0.00079  0.00609 -0.00066  0.00014
                  y   0.02825  0.04163 -0.00266 -0.01648 -0.00253  0.00073
                  z  -0.01336  0.00379  0.14730 -0.03613  0.30099  0.29706
 10   n           x   0.13664  0.23931 -0.00481 -0.04993 -0.00103  0.00125
                  y  -0.02094 -0.12205  0.01148  0.08077 -0.00186  0.00127
                  z   0.00446 -0.00292 -0.06119  0.01559 -0.03174 -0.20263
 11   c           x   0.06426 -0.01449  0.00130  0.00161  0.00032  0.00037
                  y   0.00111 -0.00146  0.00077 -0.00176  0.00276  0.00176
                  z  -0.00384  0.00038  0.01958 -0.00206 -0.30283 -0.22148
 12   s           x  -0.05982  0.11918  0.00017  0.00438  0.00065  0.00199
                  y  -0.24900  0.23684 -0.00203  0.01780 -0.00232 -0.00131
                  z   0.00193  0.00104 -0.02791  0.00632  0.03016  0.02001
 13   n           x  -0.04126 -0.04630 -0.00005  0.00086  0.00008 -0.00067
                  y   0.17551 -0.08326  0.00388 -0.00526  0.00060  0.00186
                  z   0.01094  0.00219 -0.16152  0.03760  0.12317  0.07021
 14   c           x  -0.02568 -0.16537  0.00006 -0.00787  0.00104 -0.00130
                  y   0.21986 -0.25651  0.00146 -0.01183  0.00249  0.00086
                  z  -0.01429 -0.00354  0.29925 -0.07168 -0.07227 -0.01931
 15   c           x  -0.14644  0.07301 -0.00274  0.00308 -0.00185 -0.00175
                  y   0.25160 -0.22663  0.00094 -0.01613 -0.00002 -0.00063
                  z  -0.00587  0.00005  0.08136 -0.01960 -0.02530 -0.01071
 16   h           x  -0.08414  0.05229  0.23684 -0.05957 -0.08056 -0.04139
                  y   0.38181 -0.21691 -0.51922  0.10472  0.15009  0.04979
                  z   0.00603  0.01610 -0.27893  0.06738  0.08391  0.03467
 17   h           x  -0.04734  0.05674 -0.24199  0.05470  0.07119  0.03231
                  y   0.32698 -0.22796  0.52211 -0.14611 -0.14817 -0.06327
                  z   0.03075 -0.01224 -0.27547  0.06370  0.08070  0.03231
 18   o           x   0.17932 -0.35012  0.00041 -0.01701  0.00144 -0.00107
                  y  -0.07987 -0.06012  0.00028  0.00006  0.00044 -0.00004
                  z   0.00480 -0.00150 -0.10235  0.02464  0.02064  0.00369
 19   br          x   0.00569  0.00115  0.00162  0.01001 -0.00012  0.00005
                  y   0.05468  0.05692  0.00193  0.00494 -0.00026  0.00005
                  z   0.00022  0.00016 -0.00013  0.00005 -0.00276  0.00244
 20   h           x  -0.03410 -0.07127  0.07379  0.56743  0.00322  0.00155
                  y  -0.10901 -0.08561  0.00382  0.04743  0.00050  0.00348
                  z   0.01575  0.00476  0.04952 -0.01600  0.43867 -0.48600
 21   h           x  -0.11474  0.00254  0.02143  0.21399 -0.00262  0.00016
                  y  -0.36513 -0.35499 -0.07307 -0.50301 -0.00330  0.00256
                  z  -0.01577  0.00888  0.07753 -0.01415  0.62518 -0.66745

reduced mass(g/mol)     9.703   12.440    3.017    5.502    4.944    4.498


       mode              31       32       33       34       35       36

     frequency         679.07   721.59   755.97   767.31   813.99   835.83

     symmetry            a        a        a        a        a        a   

        IR               YES      YES      YES      YES      YES      YES
|dDIP/dQ|   (a.u.)     0.0010   0.0023   0.0016   0.0004   0.0020   0.0048
intensity (km/mol)       1.64     9.12     4.59     0.24     7.05    41.47
intensity (  %   )       0.21     1.16     0.58     0.03     0.90     5.28
 
       RAMAN             YES      YES      YES      YES      YES      YES
 
  1   o           x   0.02981  0.11433 -0.06174  0.00099  0.00086 -0.00101
                  y  -0.06911 -0.14219  0.09073 -0.00239 -0.00167  0.00044
                  z   0.00091 -0.00150 -0.00337 -0.04920  0.00030 -0.06625
  2   c           x   0.07540  0.01485 -0.02264 -0.00079  0.00279 -0.00057
                  y   0.02185 -0.18011  0.08383 -0.00341  0.00090 -0.00082
                  z  -0.00210  0.00173  0.01914  0.22992 -0.00073  0.24141
  3   c           x   0.02310  0.10741 -0.06987  0.00327 -0.00070  0.00110
                  y   0.05918 -0.11255  0.09175 -0.00122 -0.00018  0.00064
                  z   0.00168 -0.00319 -0.01614 -0.19279  0.00010 -0.08078
  4   c           x  -0.06623  0.18568 -0.07642  0.00328 -0.00293  0.00194
                  y  -0.02385  0.05438  0.05400 -0.00150 -0.00397  0.00132
                  z   0.00089  0.00054  0.01762  0.21874  0.00049  0.01436
  5   c           x  -0.08284  0.09509 -0.07590  0.00295 -0.00285 -0.00050
                  y   0.00512  0.08898 -0.01536  0.00177  0.00080  0.00022
                  z  -0.00388  0.00311 -0.02256 -0.28145 -0.00022  0.06109
  6   c           x  -0.18814 -0.05073  0.08661 -0.00253 -0.00683 -0.00016
                  y  -0.08585  0.44580 -0.22985  0.00610 -0.00587 -0.00172
                  z  -0.00060 -0.00305  0.00818  0.14155 -0.00132 -0.08398
  7   c           x  -0.13123 -0.30871  0.22268 -0.00808 -0.00554  0.00031
                  y   0.01986 -0.01817 -0.01144 -0.00081  0.00076  0.00060
                  z  -0.00089  0.00318 -0.00038 -0.02769  0.00137 -0.16556
  8   s           x   0.05002 -0.12521  0.07660 -0.00271 -0.00703 -0.00075
                  y  -0.24171  0.03477  0.08245 -0.00280  0.00298  0.00040
                  z  -0.00039  0.00040 -0.00033 -0.01090  0.00017  0.00021
  9   c           x   0.17371  0.05915 -0.15717  0.00624  0.03149  0.00203
                  y   0.35685 -0.17442 -0.14432  0.00500 -0.01162 -0.00245
                  z  -0.00200 -0.00605 -0.00395 -0.00983 -0.00244  0.00013
 10   n           x   0.13653  0.03489 -0.18893  0.00562  0.01047 -0.00070
                  y   0.42486 -0.22606 -0.18777  0.00664  0.02960  0.00149
                  z   0.00458  0.00135  0.00543  0.06082  0.00150 -0.01505
 11   c           x   0.13280  0.08223 -0.01303  0.00028  0.01255  0.00180
                  y   0.23811  0.16285  0.31410 -0.01126 -0.08244 -0.00113
                  z   0.00220  0.00537  0.00212 -0.00728  0.00195 -0.00216
 12   s           x   0.08669  0.02806  0.06446 -0.00205  0.14451 -0.00029
                  y  -0.11252 -0.05644 -0.10658  0.00388  0.04054  0.00033
                  z  -0.00093  0.00006 -0.00021  0.00035 -0.00006  0.00053
 13   n           x   0.05510  0.05773  0.04193 -0.00218  0.02652  0.00033
                  y   0.25222  0.22103  0.34125 -0.01069 -0.09761  0.00042
                  z   0.00235  0.00025  0.00058  0.00073 -0.00117 -0.00011
 14   c           x  -0.13014 -0.02444  0.03432 -0.00194  0.05526  0.00026
                  y  -0.09025 -0.01658  0.01815  0.00039  0.05015 -0.00008
                  z  -0.00322 -0.00053  0.00034  0.00210 -0.00067  0.00212
 15   c           x  -0.06241 -0.04794 -0.04489  0.00175 -0.48429 -0.00118
                  y  -0.14684 -0.16574 -0.31878  0.01083 -0.04848 -0.00027
                  z   0.00128 -0.00337 -0.00200 -0.00103 -0.00030 -0.00279
 16   h           x   0.00153 -0.04287 -0.06370  0.00549 -0.54622 -0.00822
                  y  -0.04500 -0.14867 -0.34803  0.01210 -0.22669  0.00790
                  z   0.00226 -0.00147 -0.00005 -0.00289 -0.03858  0.00469
 17   h           x  -0.00529 -0.02938 -0.04334  0.00276 -0.54651  0.00779
                  y  -0.05541 -0.15051 -0.34676  0.00727 -0.23175 -0.00042
                  z   0.00082  0.00139  0.00240 -0.00181  0.03688  0.00554
 18   o           x  -0.24043 -0.08505 -0.01922  0.00104  0.06300 -0.00016
                  y  -0.02952  0.02286  0.07023 -0.00360  0.07701 -0.00031
                  z  -0.00002  0.00065  0.00038 -0.00032  0.00097 -0.00047
 19   br          x  -0.00094  0.00276 -0.00013  0.00024 -0.00001 -0.00002
                  y  -0.01090  0.02085 -0.01398  0.00024  0.00010 -0.00015
                  z  -0.00013  0.00013  0.00019  0.00277 -0.00003  0.00139
 20   h           x  -0.28823  0.08559  0.12742 -0.00220 -0.01680  0.00013
                  y  -0.08527  0.44145 -0.22955  0.00643 -0.00537 -0.00348
                  z   0.00684  0.00430  0.00647  0.05774  0.00343  0.55218
 21   h           x  -0.25163 -0.23519  0.21680 -0.00659 -0.01136 -0.00127
                  y   0.25453 -0.14785 -0.00559  0.00237  0.01156  0.00038
                  z   0.01082 -0.01128 -0.07129 -0.86678 -0.00585  0.76614

reduced mass(g/mol)    11.971    9.234    8.983    3.725    4.762    2.213


       mode              37       38       39       40       41       42

     frequency         860.32   888.63   907.81   921.69   964.70   968.40

     symmetry            a        a        a        a        a        a   

        IR               YES      YES      YES      YES      YES      YES
|dDIP/dQ|   (a.u.)     0.0021   0.0018   0.0021   0.0040   0.0088   0.0043
intensity (km/mol)       8.19     5.58     7.52    27.74   136.48    32.34
intensity (  %   )       1.04     0.71     0.96     3.53    17.38     4.12
 
       RAMAN             YES      YES      YES      YES      YES      YES
 
  1   o           x   0.01405 -0.03050  0.00388 -0.20962  0.07402 -0.03099
                  y   0.00650  0.00613 -0.00208  0.07998 -0.02404  0.01014
                  z   0.00145  0.00109  0.00143  0.00152 -0.00555 -0.00624
  2   c           x   0.03932 -0.02312 -0.00012 -0.12572  0.01226 -0.00441
                  y   0.04319  0.00577 -0.00046  0.07768 -0.06883  0.02832
                  z  -0.00603 -0.00305 -0.00402 -0.00446  0.01429  0.01631
  3   c           x  -0.08958  0.06984 -0.00493  0.41153 -0.15875  0.06564
                  y   0.27307 -0.08005  0.00807 -0.22560 -0.26566  0.10100
                  z   0.00307  0.00096  0.00090  0.00099 -0.00295 -0.00096
  4   c           x  -0.08568  0.07460 -0.00702  0.42370 -0.10007  0.04261
                  y   0.16669 -0.05478  0.00434 -0.09312 -0.10226  0.03733
                  z  -0.00013 -0.00015  0.00298 -0.00174  0.00280  0.00247
  5   c           x  -0.08435  0.00250  0.00462 -0.07149 -0.04255  0.01568
                  y   0.07101 -0.01251 -0.00241 -0.00584 -0.00460  0.00303
                  z   0.00077  0.00095 -0.00037  0.00350 -0.03873 -0.04332
  6   c           x  -0.07397  0.00049 -0.00225  0.06837  0.00915 -0.00300
                  y  -0.20630 -0.00803  0.00185 -0.11754  0.09239 -0.03651
                  z  -0.00121 -0.00252 -0.00013 -0.00815  0.11999  0.13987
  7   c           x  -0.02988  0.00077 -0.00080  0.05831  0.13957 -0.05451
                  y  -0.05076  0.01267  0.00017 -0.03270  0.13088 -0.05162
                  z   0.00529  0.00195  0.00213  0.00895 -0.07791 -0.09223
  8   s           x  -0.05463 -0.03491  0.00177 -0.09666  0.03067 -0.01330
                  y   0.08603 -0.00269 -0.00105 -0.00083  0.01909 -0.00692
                  z   0.00010 -0.00025 -0.00098 -0.00013  0.00029  0.00028
  9   c           x   0.37808  0.09858 -0.00260  0.04358  0.01522 -0.00545
                  y  -0.41302 -0.04088  0.00687 -0.12632 -0.06801  0.02260
                  z   0.00095  0.00016  0.00056  0.00086  0.00104  0.00033
 10   n           x   0.02270 -0.00268  0.00325 -0.28681 -0.10271  0.03763
                  y   0.00450  0.18096 -0.00712  0.23571  0.08691 -0.03142
                  z  -0.00140  0.00004 -0.00210 -0.00056  0.00940  0.01037
 11   c           x   0.42172  0.02122 -0.00419  0.04899  0.08905 -0.03237
                  y  -0.24880 -0.25806  0.00536  0.05830 -0.03205  0.01226
                  z  -0.00064  0.00108  0.01102  0.00028 -0.00069  0.00021
 12   s           x  -0.06226 -0.01497  0.00102 -0.00792 -0.00673  0.00300
                  y   0.05655  0.05213 -0.00092 -0.00866  0.00286 -0.00123
                  z   0.00069  0.00275  0.02504  0.00164  0.00052  0.00016
 13   n           x   0.11855 -0.29121  0.00365  0.15226  0.04697 -0.01743
                  y   0.11782  0.14478 -0.00522  0.00629  0.04123 -0.01422
                  z  -0.00063 -0.00319 -0.04288 -0.00375 -0.00046 -0.00000
 14   c           x  -0.10771 -0.07042 -0.00023  0.00510 -0.00450  0.00135
                  y  -0.02666  0.29475 -0.00614 -0.10150 -0.02695  0.00952
                  z   0.00444  0.01291  0.16584  0.01338  0.00179 -0.00240
 15   c           x  -0.03418  0.13586 -0.00203 -0.04475 -0.01448  0.00464
                  y   0.07602 -0.33073  0.00540  0.10000  0.02325 -0.00904
                  z  -0.00452 -0.01681 -0.18785 -0.01386 -0.00340  0.00138
 16   h           x  -0.01223 -0.06467 -0.62957 -0.03763 -0.01918 -0.00502
                  y   0.15554 -0.49842  0.11606  0.19924  0.03461 -0.02474
                  z   0.00747  0.04308  0.23938  0.01830  0.00326  0.00196
 17   h           x   0.01633  0.05462  0.63217  0.05928  0.00814 -0.00002
[...]
intensity (  %   )      26.74     0.68    26.50    88.34    19.04    13.25
 
       RAMAN             YES      YES      YES      YES      YES      YES
 
  1   o           x  -0.02063 -0.00188  0.02764 -0.02348  0.01757  0.00173
                  y   0.00659  0.00012  0.00639  0.00524 -0.00046  0.01059
                  z   0.00014  0.00038  0.00042 -0.00003  0.00004 -0.00018
  2   c           x   0.04694  0.00412 -0.07865  0.05180 -0.05508 -0.08571
                  y   0.04490  0.00562 -0.11974  0.06636 -0.07309 -0.10160
                  z  -0.00021 -0.00079 -0.00120  0.00047 -0.00057 -0.00016
  3   c           x  -0.07862  0.00297 -0.05222  0.01433  0.00120  0.09569
                  y  -0.16012 -0.00015 -0.02860 -0.06867  0.06573 -0.00866
                  z  -0.00017  0.00010 -0.00012 -0.00051  0.00014 -0.00018
  4   c           x   0.06572 -0.00657  0.15253  0.03400 -0.02146 -0.02620
                  y   0.05619 -0.00909  0.21926  0.03467 -0.01762  0.08229
                  z   0.00028 -0.00071  0.00072  0.00041 -0.00011  0.00048
  5   c           x   0.00303 -0.00428  0.04927 -0.08357  0.07095 -0.03720
                  y   0.10308  0.00329 -0.00420  0.11082 -0.09371 -0.06065
                  z   0.00024 -0.00034 -0.00057  0.00034 -0.00050 -0.00003
  6   c           x   0.00088  0.00145 -0.05506 -0.06049  0.05348  0.02316
                  y  -0.09837  0.00369 -0.09723 -0.01309  0.00850  0.00462
                  z  -0.00030  0.00137  0.00100 -0.00081 -0.00029  0.00046
  7   c           x  -0.03093 -0.00243  0.07260  0.03994 -0.02701  0.03773
                  y   0.02701 -0.00422  0.07256 -0.04083  0.03567  0.06445
                  z   0.00032 -0.00074  0.00007 -0.00005  0.00013 -0.00071
  8   s           x  -0.01520  0.00121 -0.03066 -0.01055  0.00688  0.00551
                  y  -0.01050  0.00084 -0.01752 -0.00744  0.00547 -0.01235
                  z  -0.00008 -0.00008 -0.00009  0.00001  0.00002 -0.00014
  9   c           x  -0.01432 -0.00304  0.03888 -0.06888  0.04469 -0.08040
                  y   0.01355  0.00188 -0.01819  0.07167 -0.05660  0.29373
                  z  -0.00005  0.00276  0.00019 -0.00043 -0.00051  0.00078
 10   n           x   0.05641  0.00075  0.02589  0.06494 -0.04910 -0.13932
                  y  -0.04693 -0.00172 -0.00892 -0.07386  0.06036 -0.18721
                  z  -0.00012  0.00065  0.00003  0.00000  0.00036 -0.00052
 11   c           x  -0.00029  0.00447 -0.07003  0.08130 -0.06743  0.17271
                  y   0.00452 -0.00300  0.04936 -0.06680  0.04135 -0.08638
                  z   0.00056 -0.00061 -0.00022  0.00036  0.00087  0.00118
 12   s           x   0.00109 -0.00001  0.00196  0.00293  0.00439  0.00096
                  y  -0.00142 -0.00024 -0.00153 -0.00848 -0.01297  0.00192
                  z   0.00022 -0.01303 -0.00122  0.00049 -0.00007  0.00001
 13   n           x  -0.01989  0.00009 -0.00621 -0.02399  0.00080  0.37513
                  y  -0.00381  0.00250 -0.03698  0.06181  0.01161 -0.14126
                  z  -0.00029 -0.02070 -0.00168  0.00052 -0.00001 -0.00008
 14   c           x   0.00779 -0.00014 -0.00792  0.02523  0.00274 -0.31035
                  y  -0.00466  0.00099  0.01537 -0.05161 -0.02608  0.45117
                  z  -0.00007  0.11397  0.00998 -0.00319 -0.00156 -0.00218
 15   c           x   0.00289  0.00273  0.00303  0.05884  0.07733  0.07009
                  y   0.00299  0.00241 -0.01182  0.12977  0.13361 -0.06345
                  z  -0.00108 -0.03164 -0.00158  0.00020  0.00142  0.00172
 16   h           x  -0.01858  0.33646  0.05952 -0.31797 -0.32815 -0.18724
                  y  -0.01833  0.59377  0.07256 -0.47638 -0.51632 -0.22842
                  z   0.00255  0.00726  0.00076 -0.02081 -0.02050  0.07723
 17   h           x  -0.00135 -0.35892 -0.01752 -0.28030 -0.31896 -0.17885
                  y  -0.01264 -0.62327 -0.03786 -0.43560 -0.50781 -0.19096
                  z   0.00180  0.00458 -0.00233  0.01921  0.01291 -0.09000
 18   o           x   0.00430 -0.00103  0.01329 -0.02673 -0.01316 -0.10379
                  y   0.00079 -0.00103  0.00244 -0.01385 -0.01235 -0.12111
                  z   0.00004 -0.01990 -0.00203  0.00071  0.00031  0.00051
 19   br          x   0.00064 -0.00010  0.00230 -0.00029  0.00023 -0.00015
                  y   0.00690 -0.00000  0.00129  0.00127 -0.00148 -0.00016
                  z   0.00001  0.00003  0.00003 -0.00000  0.00004 -0.00003
 20   h           x   0.51538  0.03735 -0.91321 -0.24813  0.12327  0.22909
                  y  -0.12541  0.00279 -0.06376 -0.00250  0.00316 -0.00083
                  z   0.00033 -0.00845 -0.01305  0.00687  0.00389 -0.00379
 21   h           x  -0.38258 -0.00203  0.05386  0.23798 -0.19785 -0.03980
                  y   0.70621 -0.00552  0.11539 -0.42835  0.36861  0.22534
                  z  -0.00078  0.00646  0.00407 -0.00084  0.00369  0.00994

reduced mass(g/mol)     1.832    1.182    2.528    2.159    1.857    9.523


       mode              49       50       51       52       53       54

     frequency        1277.68  1307.14  1366.02  1389.98  1433.10  1469.92

     symmetry            a        a        a        a        a        a   

        IR               YES      YES      YES      YES      YES      YES
|dDIP/dQ|   (a.u.)     0.0098   0.0040   0.0062   0.0068   0.0013   0.0037
intensity (km/mol)     170.16    28.24    68.54    82.36     2.79    23.73
intensity (  %   )      21.66     3.60     8.73    10.49     0.36     3.02
 
       RAMAN             YES      YES      YES      YES      YES      YES
 
  1   o           x  -0.00361  0.03152 -0.06047  0.01405 -0.00018 -0.01852
                  y  -0.03639  0.00066  0.03700 -0.03991 -0.00201  0.03875
                  z  -0.00019 -0.00008  0.00013 -0.00005 -0.00017  0.00002
  2   c           x   0.20377 -0.11830 -0.01067 -0.00901  0.00417 -0.02182
                  y   0.28934 -0.15791 -0.02761  0.05988  0.00092 -0.03481
                  z   0.00178 -0.00052  0.00019  0.00008  0.00022 -0.00016
  3   c           x  -0.19465  0.05963  0.24183  0.18237  0.00739 -0.04504
                  y  -0.09055  0.03791 -0.07965 -0.18698 -0.00902  0.06022
                  z  -0.00068  0.00032  0.00010 -0.00055 -0.00007 -0.00004
  4   c           x   0.03479  0.01095 -0.24294 -0.25894 -0.01244  0.06070
                  y  -0.04447 -0.05404 -0.03390  0.26614  0.01613 -0.17755
                  z   0.00003  0.00020 -0.00051  0.00047  0.00007 -0.00088
  5   c           x   0.11657 -0.35555  0.00632  0.08328  0.00423 -0.07198
                  y   0.05233  0.07596  0.19195 -0.09302 -0.00809  0.14562
                  z   0.00088  0.00009  0.00067 -0.00063 -0.00006  0.00075
  6   c           x  -0.06850 -0.08195  0.09581 -0.03727  0.00483 -0.13748
                  y  -0.01588  0.00667  0.00448 -0.08908 -0.00739  0.08750
                  z  -0.00074  0.00026 -0.00004  0.00009  0.00008  0.00042
  7   c           x  -0.07672  0.10951  0.01012 -0.09066 -0.01207  0.19708
                  y  -0.12441  0.16501 -0.10811  0.17342  0.01481 -0.16988
                  z  -0.00069  0.00020 -0.00043  0.00034  0.00009 -0.00062
  8   s           x   0.00150  0.00125  0.01034  0.00425  0.00040 -0.00404
                  y   0.00762  0.00350  0.00559 -0.00606 -0.00034  0.00333
                  z   0.00009 -0.00005  0.00009 -0.00002  0.00000  0.00006
  9   c           x   0.13226  0.07651 -0.00637  0.19183 -0.00333  0.54512
                  y  -0.18889 -0.13423 -0.08907  0.04625 -0.00593  0.28931
                  z  -0.00111 -0.00074 -0.00036  0.00067 -0.00022  0.00137
 10   n           x  -0.01269  0.23348  0.06236 -0.07224  0.00620 -0.29667
                  y   0.08358  0.01633  0.00158 -0.06524  0.00456 -0.25794
                  z  -0.00001  0.00006 -0.00009 -0.00042  0.00025 -0.00142
 11   c           x  -0.13607 -0.06680  0.01056 -0.04876 -0.01534  0.00304
                  y   0.24727  0.17386  0.08144  0.02103 -0.01282  0.12101
                  z   0.00120  0.00117  0.00030 -0.00033  0.00016  0.00095
 12   s           x   0.00326  0.00226 -0.00022 -0.00002  0.00216  0.00107
                  y  -0.01391 -0.00867 -0.00343  0.00174 -0.00088 -0.00101
                  z   0.00010  0.00031  0.00014 -0.00017 -0.00003 -0.00014
 13   n           x   0.08633 -0.03192 -0.01509 -0.06021  0.00264 -0.19860
                  y  -0.19540 -0.12118 -0.05881 -0.00272  0.01538 -0.08055
                  z  -0.00060 -0.00028 -0.00022 -0.00007 -0.00024 -0.00057
 14   c           x  -0.13528 -0.04115 -0.01772  0.02651  0.01062  0.05054
                  y   0.20985  0.07104  0.04052 -0.04345 -0.01911 -0.05105
                  z   0.00059  0.00003 -0.00002  0.00011 -0.00035 -0.00045
 15   c           x   0.06301  0.02494  0.00813 -0.01448  0.06627  0.01966
                  y  -0.00629 -0.00361 -0.00698  0.01841 -0.04165  0.00230
                  z  -0.00034 -0.00108 -0.00041  0.00202 -0.00019  0.00209
 16   h           x  -0.14028 -0.05735 -0.02352  0.10633 -0.47089 -0.13314
                  y  -0.20097 -0.06873 -0.00809 -0.05612  0.28910  0.04875
                  z   0.04187  0.02145  0.02049 -0.09542  0.43361  0.10721
 17   h           x  -0.13406 -0.03902 -0.00770  0.08781 -0.47328 -0.14221
                  y  -0.19370 -0.05957  0.00465 -0.05959  0.29504  0.05822
                  z  -0.04306 -0.01724 -0.01391  0.08287 -0.42992 -0.11605
 18   o           x  -0.00879  0.01264  0.00023  0.01681  0.00393  0.03433
                  y  -0.04813 -0.01459 -0.01015  0.01304  0.00674  0.01521
                  z  -0.00025 -0.00042 -0.00035 -0.00007  0.00021 -0.00038
 19   br          x   0.00026  0.00033 -0.00171 -0.00025  0.00002 -0.00031
                  y   0.00248  0.00059  0.00167  0.00320  0.00016 -0.00089
                  z  -0.00002  0.00002 -0.00001  0.00002  0.00002  0.00005
 20   h           x  -0.15565  0.68411 -0.70881  0.46496  0.01598 -0.05407
                  y  -0.01935 -0.00959  0.04216 -0.12595 -0.00938  0.10858
                  z   0.00498  0.00083  0.00115 -0.00354  0.00094 -0.00371
 21   h           x   0.15609  0.32717 -0.28021  0.28125  0.01558 -0.06822
                  y  -0.59892 -0.21909  0.45010 -0.56022 -0.04098  0.37933
                  z  -0.00396 -0.00305 -0.00040  0.00223 -0.00310  0.00451

reduced mass(g/mol)     6.340    5.150    3.395    4.712    1.103    9.872


       mode              55       56       57       58       59       60

     frequency        1535.02  1556.86  1621.91  1703.81  1811.90  3059.58

     symmetry            a        a        a        a        a        a   

        IR               YES      YES      YES      YES      YES      YES
|dDIP/dQ|   (a.u.)     0.0023   0.0142   0.0067   0.0210   0.0198   0.0043
intensity (km/mol)       9.73   360.27    79.29   785.47   697.85    32.26
intensity (  %   )       1.24    45.87    10.09   100.00    88.85     4.11
 
       RAMAN             YES      YES      YES      YES      YES      YES
 
  1   o           x  -0.13414  0.04368  0.06000  0.35265 -0.01696  0.00019
                  y   0.07872 -0.02753 -0.06718 -0.23189  0.01109 -0.00014
                  z   0.00040 -0.00002 -0.00015 -0.00116  0.00012 -0.00001
  2   c           x   0.20317 -0.05291 -0.00009 -0.56533  0.02793 -0.00008
                  y   0.03908 -0.05025  0.11746  0.47200 -0.02266  0.00006
                  z   0.00027 -0.00006  0.00033  0.00137  0.00009 -0.00006
  3   c           x  -0.00980 -0.02788 -0.08554  0.05446 -0.00144 -0.00028
                  y  -0.09551  0.06567 -0.00599 -0.04917 -0.00080 -0.00001
                  z   0.00018  0.00030 -0.00019 -0.00078 -0.00004 -0.00002
  4   c           x  -0.00218  0.06004  0.07506  0.00138 -0.00412  0.00024
                  y   0.33282 -0.05317 -0.03905  0.06602 -0.01543 -0.00024
                  z   0.00113 -0.00005 -0.00031  0.00019  0.00009  0.00000
  5   c           x  -0.27751  0.17230 -0.32735 -0.04280  0.00524 -0.00029
                  y  -0.45132  0.00764 -0.01644 -0.05602  0.02366  0.00024
                  z  -0.00188  0.00034 -0.00061 -0.00007 -0.00038 -0.00004
  6   c           x   0.07451  0.06650  0.51756 -0.04677 -0.00451  0.00018
                  y   0.25754 -0.11197 -0.07666  0.06153 -0.00530 -0.00072
                  z   0.00104 -0.00047  0.00049  0.00025 -0.00038 -0.00010
  7   c           x   0.12518 -0.13402 -0.27371  0.13988 -0.00570  0.00062
                  y  -0.26898  0.17914  0.13394 -0.20408  0.00840  0.00042
                  z  -0.00112  0.00041  0.00015 -0.00028 -0.00028 -0.00006
  8   s           x  -0.00057 -0.00124  0.00240 -0.00085  0.00206 -0.00003
                  y  -0.00541  0.00471 -0.00068 -0.00173  0.00042  0.00002
                  z  -0.00004  0.00005  0.00006  0.00018 -0.00006  0.00000
  9   c           x  -0.00654 -0.21062  0.13738 -0.05373 -0.01562  0.00015
                  y  -0.02023  0.01132  0.08425 -0.01290  0.01215 -0.00003
                  z  -0.00021 -0.00068  0.00055 -0.00005 -0.00004 -0.00005
 10   n           x   0.04765 -0.10694 -0.02537  0.03882 -0.00587  0.00019
                  y   0.04828  0.01724 -0.07558  0.01479 -0.01452 -0.00011
                  z   0.00012 -0.00005 -0.00057  0.00022 -0.00056 -0.00001
 11   c           x   0.15085  0.61697 -0.04531  0.05265  0.07456  0.00000
                  y   0.10665  0.32740 -0.00772  0.01241  0.02721 -0.00070
                  z   0.00049  0.00207 -0.00030  0.00063 -0.00133  0.00011
 12   s           x  -0.00138 -0.00771  0.00105  0.00006  0.00738  0.00017
                  y  -0.00182 -0.00603  0.00035  0.00044 -0.00017 -0.00017
                  z   0.00009 -0.00001  0.00001  0.00011  0.00023 -0.00006
 13   n           x  -0.11290 -0.37021 -0.00402 -0.02090  0.06851  0.00125
                  y  -0.08347 -0.27246  0.00578 -0.01053  0.00187  0.00036
                  z  -0.00030 -0.00096 -0.00012  0.00018  0.00009 -0.00002
 14   c           x  -0.00194  0.02805  0.00006 -0.02468 -0.74323 -0.00070
                  y  -0.00391  0.02406 -0.00957 -0.02261 -0.39257 -0.00033
                  z   0.00003  0.00016  0.00081 -0.00035 -0.00200  0.00023
 15   c           x   0.00244  0.00367 -0.00067  0.00392  0.02227 -0.05643
                  y   0.00234  0.00671  0.00151 -0.00010  0.01190  0.03815
                  z  -0.00036  0.00043 -0.00119  0.00012  0.00223  0.00676
 16   h           x  -0.03607 -0.12470  0.01864 -0.02741 -0.00752  0.30573
                  y  -0.00080 -0.00025 -0.01145  0.00822 -0.08949 -0.20284
                  z   0.02503  0.07849 -0.01723  0.02199 -0.02297  0.54202
 17   h           x  -0.03030 -0.12487  0.02942 -0.05544 -0.03483  0.35329
                  y  -0.00302 -0.00221 -0.01790  0.02070 -0.08761 -0.23451
                  z  -0.02074 -0.07984  0.03002 -0.03796  0.01277 -0.62205
 18   o           x   0.01234  0.01040  0.00590  0.01774  0.42908 -0.00023
                  y   0.00032 -0.02041  0.00459  0.01065  0.27580 -0.00032
                  z  -0.00016 -0.00062 -0.00032  0.00053  0.00125 -0.00009
 19   br          x   0.00091  0.00003  0.00022 -0.00158  0.00011 -0.00002
                  y  -0.00055 -0.00142  0.00065 -0.00203  0.00038  0.00002
                  z  -0.00003  0.00000  0.00005 -0.00005  0.00009  0.00001
 20   h           x   0.02220  0.01884 -0.62845  0.02193 -0.00544 -0.00002
                  y   0.29843 -0.13434 -0.03373  0.06528 -0.00591  0.00941
                  z   0.00140 -0.00025 -0.00117 -0.00221  0.00711  0.00040
 21   h           x  -0.20280  0.06420 -0.15326 -0.18539  0.00842 -0.00738
                  y   0.42347 -0.24510 -0.18016  0.37730 -0.02130 -0.00390
                  z  -0.00115 -0.00495  0.00232  0.00539  0.00023  0.00187

reduced mass(g/mol)     8.710   11.082    7.051   10.663   12.860    1.060


       mode              61       62       63

     frequency        3105.39  3186.09  3211.28

     symmetry            a        a        a   

        IR               YES      YES      YES
|dDIP/dQ|   (a.u.)     0.0018   0.0026   0.0027
intensity (km/mol)       5.57    12.25    13.12
intensity (  %   )       0.71     1.56     1.67
 
       RAMAN             YES      YES      YES
 
  1   o           x   0.00014  0.00002 -0.00071
                  y  -0.00011  0.00003  0.00063
                  z   0.00000 -0.00001 -0.00000
  2   c           x  -0.00003 -0.00045  0.00160
                  y   0.00021  0.00059 -0.00321
                  z   0.00000  0.00006  0.00024
  3   c           x  -0.00013 -0.00004  0.00004
                  y  -0.00007 -0.00028 -0.00013
                  z  -0.00002  0.00001 -0.00001
  4   c           x   0.00002  0.00019 -0.00027
                  y  -0.00007 -0.00046  0.00029
                  z   0.00001 -0.00000  0.00001
  5   c           x  -0.00027 -0.00273 -0.00243
                  y   0.00006 -0.00024 -0.00111
                  z  -0.00001  0.00003 -0.00007
  6   c           x   0.00015  0.00438 -0.00147
                  y  -0.00004  0.07737  0.03933
                  z   0.00000  0.00030  0.00016
  7   c           x   0.00006 -0.03016  0.07167
                  y  -0.00004 -0.01828  0.03376
                  z  -0.00004 -0.00007  0.00011
  8   s           x  -0.00001  0.00004 -0.00003
                  y  -0.00004 -0.00002  0.00003
                  z  -0.00002  0.00001 -0.00001
  9   c           x  -0.00020  0.00037  0.00059
                  y  -0.00017  0.00019 -0.00020
                  z   0.00011  0.00002  0.00001
 10   n           x   0.00025 -0.00021  0.00023
                  y   0.00009 -0.00003  0.00012
                  z  -0.00008 -0.00019 -0.00016
 11   c           x  -0.00008 -0.00003 -0.00037
                  y  -0.00008  0.00011  0.00012
                  z   0.00030 -0.00004  0.00016
 12   s           x  -0.00003  0.00004 -0.00005
                  y  -0.00000  0.00001 -0.00001
                  z  -0.00046  0.00002 -0.00001
 13   n           x  -0.00003  0.00001  0.00005
                  y  -0.00007 -0.00007 -0.00006
                  z   0.00016 -0.00000  0.00001
 14   c           x  -0.00011 -0.00006  0.00000
                  y  -0.00004 -0.00007  0.00027
                  z   0.00006  0.00006  0.00004
 15   c           x   0.00403 -0.00070  0.00019
                  y  -0.00326  0.00044 -0.00024
                  z   0.09577  0.00021 -0.00000
 16   h           x  -0.36924  0.00353 -0.00094
                  y   0.25358 -0.00220  0.00080
                  z  -0.60603  0.00597 -0.00210
 17   h           x   0.32137  0.00436 -0.00104
                  y  -0.21120 -0.00333  0.00089
                  z  -0.52440 -0.00838  0.00236
 18   o           x   0.00017  0.00001  0.00000
                  y   0.00004  0.00000 -0.00003
                  z  -0.00022 -0.00001 -0.00003
 19   br          x   0.00004 -0.00001  0.00001
                  y  -0.00000  0.00001  0.00001
                  z   0.00001 -0.00001 -0.00001
 20   h           x  -0.00220 -0.03989 -0.01543
                  y   0.00120 -0.89863 -0.42516
                  z  -0.00031 -0.00322 -0.00156
 21   h           x  -0.00039  0.38046 -0.80240
                  y  -0.00019  0.19673 -0.40901
                  z   0.00185  0.00113 -0.00203

reduced mass(g/mol)     1.109    1.088    1.094
 

 <geterg> : there is no data group $energy 


         **************************************************************
         *                                                            *
         *  zero point VIBRATIONAL energy  :      0.1233613  Hartree  *
         *                                                            *
         **************************************************************




 time elapsed for vibrational analysis     0.04 sec


    ------------------------------------------------------------------------
         total  cpu-time :   0.07 seconds
         total wall-time :   0.07 seconds
    ------------------------------------------------------------------------

   ****  force : all done  ****


    2018-02-09 23:11:18.986 

