
 egrad (missouri) : TURBOMOLE V7.2 ( 21454 ) 4 Oct 2017 at 12:24:43
 Copyright (C) 2017 TURBOMOLE GmbH, Karlsruhe


    2018-02-09 11:33:53.394 




                               e g r a d

                             TURBOMOLE GmbH


             integral direct evaluation of excited state
                     and polarizability gradients
                 and first-order nonadiabatic couplings



          references (see also programs escf, dscf and ridft) 

          review 
          F. Furche and D. Rappoport,  
          "Density functional methods for excited states: 
          equilibrium structure and electronic spectra",
          ch. III of "Computational Photochemistry", ed. by 
          M. Olivucci, vol. 16 of "Theoretical and Computational 
          Chemistry", Elsevier, Amsterdam, 2005.

          nonorthonormal Krylov space methods 
          F. Furche, B. T. Krull, B. D. Nguyen, J. Kwon, 
          J. Chem. Phys. 144 (2016), 174105.

          RI-J method 
          D. Rappoport and F. Furche, 
          J. Chem. Phys. 122 (2005), 064105.

          Lagrangian method, implementation, benchmarks 
          F. Furche and R. Ahlrichs,
          J. Chem. Phys. 117 (2002), 7433;
          J. Chem. Phys. 121 (2004), 12772 (E).

          Polarizability derivatives, Raman intensities 
          D. Rappoport and F. Furche, 
          J. Chem. Phys. 126 (2007), 201104.

          First-order nonadiabatic couplings 
          R. Send and F. Furche, 
          J. Chem. Phys. 132 (2010), 044107.
                                     




              +--------------------------------------------------+
              | Atomic coordinate, charge and isotop information |
              +--------------------------------------------------+

                    atomic coordinates            atom    charge  isotop
        -12.81326362    6.80434797    0.00592155    o      8.000     0
        -10.86850843    5.50473282    0.00248321    c      6.000     0
         -8.33158310    6.66257169    0.00818714    c      6.000     0
         -6.09648816    5.18991266    0.00442541    c      6.000     0
         -6.19582695    2.53006865   -0.00518860    c      6.000     0
         -8.59681158    1.36928577   -0.01080393    c      6.000     0
        -10.80232369    2.77096701   -0.00720334    c      6.000     0
         -3.01574052    6.21970728    0.00989254    s     16.000     0
         -2.04088203    3.03325119   -0.00089535    c      6.000     0
         -3.85743954    1.35819214   -0.00794891    n      7.000     0
          0.62814140    2.55118634   -0.00110951    c      6.000     0
          1.62172812   -0.65347050   -0.01192292    s     16.000     0
          2.37112900    4.30961577    0.00601401    n      7.000     0
          4.77842890    3.37421045    0.00378700    c      6.000     0
          4.85153858    0.44331398   -0.00654966    c      6.000     0
          5.88164244   -0.23422142    1.67679113    h      1.000     0
          5.88319214   -0.22229299   -1.69369434    h      1.000     0
          6.72982503    4.59495367    0.00895577    o      8.000     0
         -8.16626259   10.16649456    0.02066051    br    35.000     0
         -8.66873928   -0.69892501   -0.01827649    h      1.000     0
        -12.64716089    1.83818228   -0.01170121    h      1.000     0
 
       center of nuclear mass  :   -4.07565568    5.04232738    0.00485988
       center of nuclear charge:   -3.93038526    4.82618579    0.00417403

              +--------------------------------------------------+
              |               basis set information              |
              +--------------------------------------------------+

              we will work with the 1s 3p 5d 7f 9g ... basis set
              ...i.e. with spherical basis functions...

   type   atoms  prim   cont   basis
   ---------------------------------------------------------------------------
    o        2     24     14   def2-SV(P)   [3s2p1d|7s4p1d]
    c       10     24     14   def2-SV(P)   [3s2p1d|7s4p1d]
    s        2     36     18   def2-SV(P)   [4s3p1d|10s7p1d]
    n        2     24     14   def2-SV(P)   [3s2p1d|7s4p1d]
    h        4      4      2   def2-SV(P)   [2s|4s]
    br       1     74     32   def2-SV(P)   [5s4p3d|14s10p6d]
   ---------------------------------------------------------------------------
   total:   21    498    272
   ---------------------------------------------------------------------------

   total number of primitive shells          :   88
   total number of contracted shells         :  120
   total number of cartesian basis functions :  291
   total number of SCF-basis functions       :  272


 residuum convergence criterium   :  0.10E-04


 integral neglect threshold       :  0.11E-10
 integral storage threshold THIZE :  0.10E-04
 integral storage threshold THIME :         5

 
             FOUND RI-J FLAG !
 
  
 AUXILIARY BASIS SET information:

              we will work with the 1s 3p 5d 7f 9g ... basis set
              ...i.e. with spherical basis functions...

   type   atoms  prim   cont   basis
   ---------------------------------------------------------------------------
    o        2     70     49   def2-SV(P)   [6s4p3d1f1g|12s5p4d2f1g]
    c       10     70     49   def2-SV(P)   [6s4p3d1f1g|12s5p4d2f1g]
    s        2     77     51   def2-SV(P)   [8s4p3d1f1g|14s5p5d2f1g]
    n        2     70     49   def2-SV(P)   [6s4p3d1f1g|12s5p4d2f1g]
    h        4     16     11   def2-SV(P)   [3s1p1d|5s2p1d]
    br       1     89     58   def2-SV(P)   [8s4p3d2f1g|19s5p5d3f1g]
   ---------------------------------------------------------------------------
   total:   21   1287    890
   ---------------------------------------------------------------------------

   total number of primitive shells          :  140
   total number of contracted shells         :  282
   total number of cartesian basis functions : 1101
   total number of SCF-basis functions       :  890

 RPA SINGLET-EXCITATION-CALCULATION 
 
             FOUND DFT-FLAG !
 

 symmetry group of the molecule :   c1 

 the group has the following generators :
   c1(z)

    1 symmetry operations found

 there are 1 real representations :   a   

 maximum number of shells which are related by symmetry :  1

 IRREP of excited state :   a   
 

 determining totally symmetric integral contributions 
    - equivalent to irreducible tensor elements - 
 which can be formed within each triple of representations :

             representation triple      contributions

              a     a     a               1

    mo occupation :
   irrep   mo's   occupied
    a      272       81
 
 number of basis functions   :                    272
 number of occupied orbitals :                     81
 
  
           ------------------
           density functional
           ------------------
 PBE0 hybrid functional
 exchange:    3/4 (LDA+PBE) + 1/4 HF
 correlation: LDA (PW) + PBE

 iterations will be done with small grid
  
 spherical integration : Lebedev's spherical grid
 spherical gridsize    :                     5
    i.e. gridpoints    :                   590
 value for diffuse not defined
 radial integration    : Chebyshev 2nd kind (scaling 3)
 radial gridsize       :                     8
 integration cells     :                    21
 partition function    : becke
 partition sharpness   :                     3
  
  
           ----------------------
               RI - INFORMATION
           ----------------------

 biggest AO integral is expected to be    21.668154127

 Threshold for integral neglect (rithr2):   0.11E-10
 Threshold for integral neglect (rithr1):   0.11E-10

 Contributions to RI integral batches: 
  neglected integral batches:                  2115
  direct contribution:                            0
  memory contribution:                  5145
 Core memory available (ricore)            5000 MiB
 Core memory needed for (P|Q) and Cholesky 7 MiB
 Core memory used for integrals            250 MiB
  
 ****************************************
 Memory allocated for RIDFT 257 MiB
 ****************************************
                                            
  MOs are in ASCII format !


 reading orbital data $scfmo  from file mos
 orbital characterization : scfconv=7
 preparing numerical integration ....
          Overall gridpoints after grid construction =        122131

 Calculating ground state density on molecular grid

 Integral of ground state density: N =   162.0000041097522    



 number of non-frozen orbitals          :   272
 number of non-frozen occupied orbitals :    81



                        -------------------
                         excitation vector 
                        -------------------


 dimension of super-tensorspace: 2

          IRREP   tensor space dimension   number of roots

           a             15471                   3

 maximum number of Davidson iterations set to   25


 machine precision: 2.22D-16


 logfile sing_a    will be constructed


                       Nonorthonormal Krylov Space Iteration


 total number of roots to be determined:   3


 maximum core memory set to  5000 MB,
 corresponding to     3796 vectors in CAO basis


 maximum number of simultaneously treated vectors (including degeneracy):        6


 Iteration IRREP Converged      Max. Euclidean
                 roots          residual norm

    1       a        0        1.607964620543875D-01
 
    2       a        0        4.899065543423732D-02
 
    3       a        0        1.929559220537120D-02
 
    4       a        0        9.330163855482526D-03
 
    5       a        0        3.243828146527722D-03
 
    6       a        0        1.475886100523551D-03
 
    7       a        0        5.133161549945466D-04
 
    8       a        0        1.956420118299151D-04
 
    9       a        1        7.121246845366192D-05
 
   10       a        2        2.098311436082367D-05
 
   11       a        3        9.128543027102588D-06
 

 converged!


 Switching to fine grid

 preparing numerical integration ....
          Overall gridpoints after grid construction =        372361

 Calculating ground state density on molecular grid

 Integral of ground state density: N =   161.9999977117640    



 Iteration IRREP Converged      Max. Euclidean
                 roots          residual norm

   12       a        2        1.015712413119082D-05
 

 NOTE: Residual norms are larger than 1.00D-05 due to mgrid option!

 Eigenpairs written on logfile sing_a   



 IRREP   Vector     Eigenvalue           Euclidean residual norm

  a         1    8.332566057154096D-02    1.015712413119082D-05
            2    1.030788688748539D-01    6.656027619183742D-06
            3    1.232808117533761D-01    9.342072619294472D-06
 




                    Selection rules for point group c1  


 Subduction with respect to c1  :

    Polar vector representation: a                           

    Axial vector representation: a                           

    Symmetric second rank tensor representation: a                           




                            Ground state


 Total energy:                           -4011.725559087000    

 Charge:

               elec          nuc         total

          -162.000000   161.000000    -1.000000


 Electric dipole moment:

               elec          nuc         total   

    x      637.834424  -632.792028     5.042397    Norm:              7.953968
    y     -783.167317   777.015913    -6.151404
    z       -0.680156     0.672019    -0.008136    Norm / debye:     20.217122


 Electric quadrupole moment:

               elec          nuc         total   

   xx    -7847.539679  7672.976617  -174.563062
   yy    -5935.318787  5798.736384  -136.582403    1/3*trace:      -134.653412
   zz      -98.517956     5.703183   -92.814773
   xy     4836.698802 -4802.000677    34.698125
   xz        5.911921    -5.889208     0.022713    Anisotropy:       92.910465
   yz       -9.547344     9.478903    -0.068442



 ==============================================================================

                              I R R E P   a   

 ==============================================================================


 Excitation is electric dipole allowed

 Excitation is magnetic dipole allowed

 Excitation is electric quadrupole allowed




                         1 singlet a excitation


 Total energy:                           -4011.642233426428    

 Excitation energy:                      0.8332566057154096E-01

 Excitation energy / eV:                  2.267407560939150    

 Excitation energy / nm:                  546.8105784877714    

 Excitation energy / cm^(-1):             18287.86858177251    


 Oscillator strength:

    velocity representation:             0.3091860720985447    

    length representation:               0.3606658479781867    

    mixed representation:                0.3339296204454029    


 Rotatory strength:

    velocity representation:            -0.9413195098949706E-07

    velocity rep. / 10^(-40)erg*cm^3:   -0.6081377411638581E-02

    length representation:               0.3267067092146911E-08

    length rep. / 10^(-40)erg*cm^3:      0.2110682696750522E-03


 Dominant contributions:

      occ. orbital   energy / eV   virt. orbital     energy / eV   |coeff.|^2*100
       81 a              -2.01          82 a               0.47       91.7
 

 Change of electron number:

            -0.000000


 Electric transition dipole moment (velocity rep.):

    x        2.318388        Norm:                  2.359208
    y       -0.436968
    z       -0.000208        Norm / debye:          5.996554


 Electric transition dipole moment (length rep.):

    x        2.501145        Norm:                  2.548055
    y       -0.486680
    z       -0.000272        Norm / debye:          6.476558


 Magnetic transition dipole moment / i:

    x       -0.000001        Norm:                  0.001080
    y       -0.000003
    z       -0.001080        Norm / Bohr mag.:      0.295968


 Electric quadrupole transition moment:

   xx      -18.757741
   yy       -4.481172        1/3*trace:            -7.709664
   zz        0.109921
   xy       11.296613
   xz        0.002103        Anisotropy:           25.947718
   yz       -0.004497




                         2 singlet a excitation


 Total energy:                           -4011.622480218125    

 Excitation energy:                      0.1030788688748539    

 Excitation energy / eV:                  2.804919937709133    

 Excitation energy / nm:                  442.0241816517951    

 Excitation energy / cm^(-1):             22623.19667928229    


 Oscillator strength:

    velocity representation:             0.5151217460494457E-04

    length representation:               0.3093531880637263E-05

    mixed representation:                0.1262259024098876E-04


 Rotatory strength:

    velocity representation:             0.1314441976942567E-06

    velocity rep. / 10^(-40)erg*cm^3:    0.8491928259704280E-02

    length representation:               0.1448442482589656E-06

    length rep. / 10^(-40)erg*cm^3:      0.9357636066271768E-02


 Dominant contributions:

      occ. orbital   energy / eV   virt. orbital     energy / eV   |coeff.|^2*100
       80 a              -3.26          82 a               0.47       97.3
 

 Change of electron number:

            -0.000000


 Electric transition dipole moment (velocity rep.):

    x       -0.000110        Norm:                  0.027379
    y       -0.000071
    z        0.027379        Norm / debye:          0.069591


 Electric transition dipole moment (length rep.):

    x       -0.000107        Norm:                  0.006709
    y        0.000006
    z        0.006709        Norm / debye:          0.017054


 Magnetic transition dipole moment / i:

    x       -0.001126        Norm:                  0.001467
    y        0.000940
    z        0.000003        Norm / Bohr mag.:      0.402086


 Electric quadrupole transition moment:

   xx        0.000933
   yy        0.000661        1/3*trace:             0.000317
   zz       -0.000642
   xy        0.000056
   xz       -0.147924        Anisotropy:            0.267854
   yz       -0.045092




                         3 singlet a excitation


 Total energy:                           -4011.602278275247    

 Excitation energy:                      0.1232808117533761    

 Excitation energy / eV:                  3.354643008780310    

 Excitation energy / nm:                  369.5899792674120    

 Excitation energy / cm^(-1):             27057.01063196844    


 Oscillator strength:

    velocity representation:             0.3737909599740620    

    length representation:               0.4175116695367984    

    mixed representation:                0.3950360574712736    


 Rotatory strength:

    velocity representation:            -0.3632476068378230E-06

    velocity rep. / 10^(-40)erg*cm^3:   -0.2346754494976723E-01

    length representation:              -0.2140900676920491E-06

    length rep. / 10^(-40)erg*cm^3:     -0.1383124951764647E-01


 Dominant contributions:

      occ. orbital   energy / eV   virt. orbital     energy / eV   |coeff.|^2*100
       79 a              -3.50          82 a               0.47       91.7
 

 Change of electron number:

            -0.000000


 Electric transition dipole moment (velocity rep.):

    x        2.071410        Norm:                  2.132614
    y       -0.507251
    z       -0.000625        Norm / debye:          5.420605


 Electric transition dipole moment (length rep.):

    x        2.185162        Norm:                  2.253887
    y       -0.552334
    z       -0.000716        Norm / debye:          5.728853


 Magnetic transition dipole moment / i:

    x       -0.000003        Norm:                  0.000287
    y       -0.000011
    z        0.000287        Norm / Bohr mag.:      0.078610


 Electric quadrupole transition moment:

   xx      -14.331771
   yy       -3.822361        1/3*trace:            -6.054129
   zz       -0.008256
   xy        9.435305
   xz        0.001550        Anisotropy:           20.788315
   yz       -0.002326
 

 Excited state no.    1 chosen for optimization


                       ----------------------
                        CPKS right-hand side 
                       ----------------------


          IRREP   tensor space dimension   number of roots

           a             15471                   1

                          ----------------
                           CPKS equations 
                          ----------------


 logfile dipl_a    will be constructed

 Switching to coarse grid

 preparing numerical integration ....
          Overall gridpoints after grid construction =        122131


                       Nonorthonormal Krylov Space Iteration


 total number of roots to be determined:   1


 maximum core memory set to  5000 MB,
 corresponding to     7544 vectors in CAO basis


 maximum number of simultaneously treated vectors (including degeneracy):        1


 Iteration IRREP Converged      Max. Euclidean
                 roots          residual norm

    1       a        0        1.087747627966480D-01
 
    2       a        0        4.864997509812615D-02
 
    3       a        0        2.235831911135063D-02
 
    4       a        0        9.447104800889169D-03
 
    5       a        0        3.552568715807566D-03
 
    6       a        0        1.240351281774924D-03
 
    7       a        0        4.772648626213858D-04
 
    8       a        0        1.642069357942992D-04
 
    9       a        0        8.222430797852016D-05
 
   10       a        0        1.909762639817092D-05
 
   11       a        1        8.086004485804703D-06
 

 converged!


 Switching to fine grid

 preparing numerical integration ....
          Overall gridpoints after grid construction =        372361

 Iteration IRREP Converged      Max. Euclidean
                 roots          residual norm

   12       a        0        1.627286948699568D-05
 

 NOTE: Residual norms are larger than 1.00D-05 due to mgrid option!

 Eigenpairs written on logfile dipl_a   



 IRREP   Vector     Frequency            Euclidean residual norm

  a         1    0.000000000000000D+00    1.627286948699568D-05
 

                          -------------------
                           relaxed densities 
                          -------------------


    ----------------------------------------
     S+T+V CONTRIBUTIONS TO ENERGY GRADIENT 
    ----------------------------------------

 1e-integral 1st. derivatives will be neglected if expon. factor < 0.100000E-10


    -----------------------------------------------
     TWO ELECTRON CONTRIBUTIONS TO ENERGY GRADIENT 
    -----------------------------------------------

 setting up bound for integral derivative estimation

 increment for numerical differentiation : 0.00050000

 biggest AO integral is expected to be    21.668154127
 biggest cartesian 1st derivative AO integral is expected to be    83.347447328

 biggest 1-particle AO density matrix element is expected to be    3.2069759787

 core memory to be involved in 2e-gradient :
   symmetry shell pair data              :         1
   two particle density+dens. estimates  :      8556
   derivative integrals                  :      8498
   derivative integral bound             :     21780
   totally                               :     30276


 setting up bound for integral derivative estimation

 increment for numerical differentiation : 0.00050000

 biggest AO integral is expected to be    21.668154127
 biggest cartesian 1st derivative AO integral is expected to be    83.347447328

 2e-integral 1st. derivatives will be neglected if expon. factor < 0.100000E-06
 outer boundary for 2e-integral derivative neglection is 0.162053E-08

 Integrated ground state density     :   161.9999977117631    


          ------------------------------------------------
           cartesian gradient of the energy (hartree/bohr)
          ------------------------------------------------

  ATOM      1 o           2 c           3 c           4 c           5 c 
dE/dx -0.3568616D-05  0.3412567D-05  0.2734963D-06 -0.4262214D-05  0.3889050D-05
dE/dy -0.1216199D-04  0.1200017D-04  0.5560564D-05 -0.1374169D-04  0.2644902D-05
dE/dz -0.5000093D-07 -0.1540313D-05 -0.2994921D-05  0.1114478D-04 -0.6653998D-05

  ATOM      6 c           7 c           8 s           9 c          10 n 
dE/dx  0.3066941D-05 -0.1239116D-04  0.3181987D-06 -0.9950097D-05  0.3820210D-05
dE/dy -0.4911557D-06  0.4687715D-05  0.1078930D-04 -0.1362360D-04  0.2107705D-05
dE/dz  0.5157014D-05 -0.1018003D-06 -0.9894030D-06 -0.5230664D-06 -0.1057868D-05

  ATOM     11 c          12 s          13 n          14 c          15 c 
dE/dx  0.9340347D-05 -0.2505428D-05 -0.3679200D-05  0.7223186D-05 -0.7094580D-05
dE/dy -0.3507934D-05 -0.2947497D-05  0.8994242D-05 -0.1373707D-04  0.6708539D-05
dE/dz -0.7041164D-06  0.1344849D-05  0.5896690D-05 -0.1790835D-05 -0.2115564D-05

  ATOM     16 h          17 h          18 o          19 br         20 h 
dE/dx  0.1236143D-05  0.5017706D-06 -0.1067935D-05 -0.1684203D-05  0.1426211D-05
dE/dy -0.3971386D-05 -0.3211383D-05  0.5505632D-05 -0.2601835D-05 -0.3925128D-05
dE/dz  0.3386991D-05 -0.3468778D-05 -0.1264227D-05 -0.1814710D-05 -0.1284269D-05

  ATOM     21 h 
dE/dx -0.4538898D-06
dE/dy  0.1020156D-05
dE/dz -0.6569001D-06
 
 resulting FORCE  (fx,fy,fz) = (-.121D-04,-.139D-04,-.804D-07)
 resulting MOMENT (mx,my,mz) = (0.217D-05,-.146D-05,0.681D-04)


 **********************************************************************
  |maximum component of gradient| : 0.13741687E-04  (atom  4 c )       
   gradient norm                  : 0.45809861E-04
 **********************************************************************

 exx =       0.000124 eyy =      -0.000010 ezz =       0.000012
 eyz =      -0.000000 exz =       0.000002 exy =      -0.000028


 <getgrd> : data group $grad  is missing 

   ***  cartesian gradients written onto <control>  ***
 
 
 
 ==============================================================================
                           electrostatic moments
 ==============================================================================

 reference point for electrostatic moments:    0.00000   0.00000   0.00000

 
              nuc           gs,e       ->  gs,tot          excit     ->  total
 ------------------------------------------------------------------------------
                          charge      
 ------------------------------------------------------------------------------
         161.000000    -162.000000      -1.000000       0.000000      -1.000000
 
 ------------------------------------------------------------------------------
                       dipole moment  
 ------------------------------------------------------------------------------
   x    -632.792028     637.834424       5.042397      -1.247181       3.795215
   y     777.015913    -783.167317      -6.151404       1.270118      -4.881286
   z       0.672019      -0.680156      -0.008136       0.003817      -0.004319
 
   | dipole moment | =     6.1831 a.u. =    15.7159 debye 
 
 ------------------------------------------------------------------------------
                     quadrupole moment
 ------------------------------------------------------------------------------
  xx    7672.976617   -7847.539679    -174.563062       2.111969    -172.451093
  yy    5798.736384   -5935.318787    -136.582403      13.572968    -123.009434
  zz       5.703183     -98.517956     -92.814773       0.198959     -92.615814
  xy   -4802.000677    4836.698802      34.698125     -12.151453      22.546671
  xz      -5.889208       5.911921       0.022713      -0.028654      -0.005942
  yz       9.478903      -9.547344      -0.068442       0.027066      -0.041376
 
     1/3  trace=    -129.358780
     anisotropy=      79.975141
 
 ==============================================================================
 


    ------------------------------------------------------------------------
         total  cpu-time :  9 minutes and 46 seconds
         total wall-time :  9 minutes and 47 seconds
    ------------------------------------------------------------------------

   ****  egrad : all done  ****


    2018-02-09 11:43:40.664 

