
 egrad (nile) : TURBOMOLE V7.2 ( 21285 ) 30 Jun 2017 at 11:51:10
 Copyright (C) 2017 TURBOMOLE GmbH, Karlsruhe


    2018-02-07 17:08:29.363 




                               e g r a d

                             TURBOMOLE GmbH


             integral direct evaluation of excited state
                     and polarizability gradients
                 and first-order nonadiabatic couplings



          references (see also programs escf, dscf and ridft) 

          review 
          F. Furche and D. Rappoport,  
          "Density functional methods for excited states: 
          equilibrium structure and electronic spectra",
          ch. III of "Computational Photochemistry", ed. by 
          M. Olivucci, vol. 16 of "Theoretical and Computational 
          Chemistry", Elsevier, Amsterdam, 2005.

          nonorthonormal Krylov space methods 
          F. Furche, B. T. Krull, B. D. Nguyen, J. Kwon, 
          J. Chem. Phys. 144 (2016), 174105.

          RI-J method 
          D. Rappoport and F. Furche, 
          J. Chem. Phys. 122 (2005), 064105.

          Lagrangian method, implementation, benchmarks 
          F. Furche and R. Ahlrichs,
          J. Chem. Phys. 117 (2002), 7433;
          J. Chem. Phys. 121 (2004), 12772 (E).

          Polarizability derivatives, Raman intensities 
          D. Rappoport and F. Furche, 
          J. Chem. Phys. 126 (2007), 201104.

          First-order nonadiabatic couplings 
          R. Send and F. Furche, 
          J. Chem. Phys. 132 (2010), 044107.
                                     




              +--------------------------------------------------+
              | Atomic coordinate, charge and isotop information |
              +--------------------------------------------------+

                    atomic coordinates            atom    charge  isotop
        -12.73905934    6.95734895   -0.00618984    o      8.000     0
        -10.81597734    5.61939952   -0.00416802    c      6.000     0
         -8.29995135    6.76322399   -0.00966065    c      6.000     0
         -6.10899608    5.27307281   -0.00668720    c      6.000     0
         -6.20353045    2.60783941    0.00211692    c      6.000     0
         -8.59988667    1.43817631    0.00720564    c      6.000     0
        -10.78825876    2.86839717    0.00373416    c      6.000     0
         -3.00398915    6.28926038   -0.01227298    s     16.000     0
         -2.05078109    3.10467183   -0.00239480    c      6.000     0
         -3.87137167    1.42967412    0.00449013    n      7.000     0
          0.61816789    2.60154348   -0.00243983    c      6.000     0
          1.57551816   -0.60813015    0.00743281    s     16.000     0
          2.37246224    4.34436809   -0.00936499    n      7.000     0
          4.77302618    3.38549765   -0.00745320    c      6.000     0
          4.81698049    0.45486547    0.00210785    c      6.000     0
          5.84077720   -0.22315519    1.68888604    h      1.000     0
          5.83890383   -0.23418669   -1.68132214    h      1.000     0
          6.73310218    4.58984281   -0.01238608    o      8.000     0
         -8.23534432    8.82931542   -0.01526552    h      1.000     0
        -13.97515783    1.24852308    0.01202458    br    35.000     0
         -8.69402515   -0.62511755    0.01369643    h      1.000     0
 
       center of nuclear mass  :   -5.47638076    2.94077538    0.00071412
       center of nuclear charge:   -5.16603115    2.98036772    0.00037793

              +--------------------------------------------------+
              |               basis set information              |
              +--------------------------------------------------+

              we will work with the 1s 3p 5d 7f 9g ... basis set
              ...i.e. with spherical basis functions...

   type   atoms  prim   cont   basis
   ---------------------------------------------------------------------------
    o        2     24     14   def2-SV(P)   [3s2p1d|7s4p1d]
    c       10     24     14   def2-SV(P)   [3s2p1d|7s4p1d]
    s        2     36     18   def2-SV(P)   [4s3p1d|10s7p1d]
    n        2     24     14   def2-SV(P)   [3s2p1d|7s4p1d]
    h        4      4      2   def2-SV(P)   [2s|4s]
    br       1     74     32   def2-SV(P)   [5s4p3d|14s10p6d]
   ---------------------------------------------------------------------------
   total:   21    498    272
   ---------------------------------------------------------------------------

   total number of primitive shells          :   88
   total number of contracted shells         :  120
   total number of cartesian basis functions :  291
   total number of SCF-basis functions       :  272


 residuum convergence criterium   :  0.10E-04


 integral neglect threshold       :  0.11E-10
 integral storage threshold THIZE :  0.10E-04
 integral storage threshold THIME :         5

 
             FOUND RI-J FLAG !
 
  
 AUXILIARY BASIS SET information:

              we will work with the 1s 3p 5d 7f 9g ... basis set
              ...i.e. with spherical basis functions...

   type   atoms  prim   cont   basis
   ---------------------------------------------------------------------------
    o        2     70     49   def2-SV(P)   [6s4p3d1f1g|12s5p4d2f1g]
    c       10     70     49   def2-SV(P)   [6s4p3d1f1g|12s5p4d2f1g]
    s        2     77     51   def2-SV(P)   [8s4p3d1f1g|14s5p5d2f1g]
    n        2     70     49   def2-SV(P)   [6s4p3d1f1g|12s5p4d2f1g]
    h        4     16     11   def2-SV(P)   [3s1p1d|5s2p1d]
    br       1     89     58   def2-SV(P)   [8s4p3d2f1g|19s5p5d3f1g]
   ---------------------------------------------------------------------------
   total:   21   1287    890
   ---------------------------------------------------------------------------

   total number of primitive shells          :  140
   total number of contracted shells         :  282
   total number of cartesian basis functions : 1101
   total number of SCF-basis functions       :  890

 RPA SINGLET-EXCITATION-CALCULATION 
 
             FOUND DFT-FLAG !
 

 symmetry group of the molecule :   c1 

 the group has the following generators :
   c1(z)

    1 symmetry operations found

 there are 1 real representations :   a   

 maximum number of shells which are related by symmetry :  1

 IRREP of excited state :   a   
 

 determining totally symmetric integral contributions 
    - equivalent to irreducible tensor elements - 
 which can be formed within each triple of representations :

             representation triple      contributions

              a     a     a               1

    mo occupation :
   irrep   mo's   occupied
    a      272       81
 
 number of basis functions   :                    272
 number of occupied orbitals :                     81
 
  
           ------------------
           density functional
           ------------------
 PBE0 hybrid functional
 exchange:    3/4 (LDA+PBE) + 1/4 HF
 correlation: LDA (PW) + PBE

 iterations will be done with small grid
  
 spherical integration : Lebedev's spherical grid
 spherical gridsize    :                     5
    i.e. gridpoints    :                   590
 value for diffuse not defined
 radial integration    : Chebyshev 2nd kind (scaling 3)
 radial gridsize       :                     8
 integration cells     :                    21
 partition function    : becke
 partition sharpness   :                     3
  
  
           ----------------------
               RI - INFORMATION
           ----------------------

 biggest AO integral is expected to be    21.668154127

 Threshold for integral neglect (rithr2):   0.11E-10
 Threshold for integral neglect (rithr1):   0.11E-10

 Contributions to RI integral batches: 
  neglected integral batches:                  2187
  direct contribution:                            0
  memory contribution:                  5073
 Core memory available (ricore)            5000 MiB
 Core memory needed for (P|Q) and Cholesky 7 MiB
 Core memory used for integrals            244 MiB
  
 ****************************************
 Memory allocated for RIDFT 250 MiB
 ****************************************
                                            
  MOs are in ASCII format !


 reading orbital data $scfmo  from file mos
 orbital characterization : scfconv=7
 preparing numerical integration ....
          Overall gridpoints after grid construction =        122141

 Calculating ground state density on molecular grid

 Integral of ground state density: N =   161.9999972299084    



 number of non-frozen orbitals          :   272
 number of non-frozen occupied orbitals :    81



                        -------------------
                         excitation vector 
                        -------------------


 dimension of super-tensorspace: 2

          IRREP   tensor space dimension   number of roots

           a             15471                   3

 maximum number of Davidson iterations set to   25


 machine precision: 2.22D-16


 logfile sing_a    exists already

 found      3 converged vectors on sing_a   
 read       3 vectors from logfile sing_a   



                       Nonorthonormal Krylov Space Iteration


 total number of roots to be determined:   3


 maximum core memory set to   500 MB,
 corresponding to      379 vectors in CAO basis


 maximum number of simultaneously treated vectors (including degeneracy):        3


 Iteration IRREP Converged      Max. Euclidean
                 roots          residual norm

    1       a        1        2.801671053557794D-05
 
    2       a        1        2.087576194077812D-05
 
    3       a        2        1.272911527428259D-05
 
    4       a        3        9.889598652514002D-06
 

 converged!


 Switching to fine grid

 preparing numerical integration ....
          Overall gridpoints after grid construction =        372403

 Calculating ground state density on molecular grid

 Integral of ground state density: N =   161.9999985603126    



 Iteration IRREP Converged      Max. Euclidean
                 roots          residual norm

    5       a        3        9.968228258249750D-06
 

 converged!

 Eigenpairs written on logfile sing_a   



 IRREP   Vector     Eigenvalue           Euclidean residual norm

  a         1    8.766183715589294D-02    8.023966450020357D-06
            2    1.017568676428673D-01    9.968228258249750D-06
            3    1.193598431568976D-01    6.445260029281859D-06
 




                    Selection rules for point group c1  


 Subduction with respect to c1  :

    Polar vector representation: a                           

    Axial vector representation: a                           

    Symmetric second rank tensor representation: a                           




                            Ground state


 Total energy:                           -4011.727005478000    

 Charge:

               elec          nuc         total

          -162.000000   161.000000    -1.000000


 Electric dipole moment:

               elec          nuc         total   

    x      837.538046  -831.731015     5.807031    Norm:              7.694863
    y     -484.887893   479.839203    -5.048690
    z       -0.055219     0.060846     0.005627    Norm / debye:     19.558538


 Electric quadrupole moment:

               elec          nuc         total   

   xx   -12244.167452 12052.223148  -191.944304
   yy    -2499.749774  2375.777107  -123.972667    1/3*trace:      -136.255288
   zz      -98.540921     5.692029   -92.848892
   xy     2623.063277 -2596.819602    26.243675
   xz        5.214617    -5.191645     0.022972    Anisotropy:       98.846177
   yz        2.808252    -2.760438     0.047814



 ==============================================================================

                              I R R E P   a   

 ==============================================================================


 Excitation is electric dipole allowed

 Excitation is magnetic dipole allowed

 Excitation is electric quadrupole allowed




                         1 singlet a excitation


 Total energy:                           -4011.639343640844    

 Excitation energy:                      0.8766183715589294E-01

 Excitation energy / eV:                  2.385400979839029    

 Excitation energy / nm:                  519.7626942151882    

 Excitation energy / cm^(-1):             19239.54933627314    


 Oscillator strength:

    velocity representation:             0.4338541796949418    

    length representation:               0.4928690608633859    

    mixed representation:                0.4624199770660507    


 Rotatory strength:

    velocity representation:            -0.5218490757918505E-06

    velocity rep. / 10^(-40)erg*cm^3:   -0.3371396373330374E-01

    length representation:              -0.6436190553865172E-06

    length rep. / 10^(-40)erg*cm^3:     -0.4158089090880999E-01


 Dominant contributions:

      occ. orbital   energy / eV   virt. orbital     energy / eV   |coeff.|^2*100
       81 a              -2.09          82 a               0.43       92.1
 

 Change of electron number:

            -0.000000


 Electric transition dipole moment (velocity rep.):

    x       -2.704798        Norm:                  2.724660
    y        0.328384
    z        0.000809        Norm / debye:          6.925446


 Electric transition dipole moment (length rep.):

    x       -2.882105        Norm:                  2.904064
    y        0.356445
    z        0.000811        Norm / debye:          7.381449


 Magnetic transition dipole moment / i:

    x        0.000001        Norm:                  0.001832
    y        0.000001
    z        0.001832        Norm / Bohr mag.:      0.502213


 Electric quadrupole transition moment:

   xx       23.681954
   yy        2.554183        1/3*trace:             8.703347
   zz       -0.126096
   xy      -11.120322
   xz        0.000412        Anisotropy:           29.684669
   yz        0.001614




                         2 singlet a excitation


 Total energy:                           -4011.625248610357    

 Excitation energy:                      0.1017568676428673    

 Excitation energy / eV:                  2.768946438448316    

 Excitation energy / nm:                  447.7668555985056    

 Excitation energy / cm^(-1):             22333.05094710708    


 Oscillator strength:

    velocity representation:             0.1367575274035959E-04

    length representation:               0.1199023056165755E-06

    mixed representation:                0.2873333773221462E-06


 Rotatory strength:

    velocity representation:             0.1510468052005297E-05

    velocity rep. / 10^(-40)erg*cm^3:    0.9758351118730832E-01

    length representation:               0.1609130518876114E-05

    length rep. / 10^(-40)erg*cm^3:      0.1039575817456852    


 Dominant contributions:

      occ. orbital   energy / eV   virt. orbital     energy / eV   |coeff.|^2*100
       80 a              -3.25          82 a               0.43       97.4
 

 Change of electron number:

            -0.000000


 Electric transition dipole moment (velocity rep.):

    x       -0.001150        Norm:                  0.014198
    y        0.000290
    z        0.014149        Norm / debye:          0.036089


 Electric transition dipole moment (length rep.):

    x       -0.001237        Norm:                  0.001329
    y        0.000270
    z       -0.000405        Norm / debye:          0.003379


 Magnetic transition dipole moment / i:

    x       -0.001109        Norm:                  0.001414
    y        0.000878
    z       -0.000001        Norm / Bohr mag.:      0.387617


 Electric quadrupole transition moment:

   xx        0.009629
   yy        0.001703        1/3*trace:             0.003919
   zz        0.000424
   xy       -0.005705
   xz       -0.073259        Anisotropy:            0.181131
   yz       -0.074242




                         3 singlet a excitation


 Total energy:                           -4011.607645634843    

 Excitation energy:                      0.1193598431568976    

 Excitation energy / eV:                  3.247947978931405    

 Excitation energy / nm:                  381.7310031155730    

 Excitation energy / cm^(-1):             26196.45749727003    


 Oscillator strength:

    velocity representation:             0.2707711307830834    

    length representation:               0.3081456212439287    

    mixed representation:                0.2888343092447973    


 Rotatory strength:

    velocity representation:            -0.3467938472535850E-06

    velocity rep. / 10^(-40)erg*cm^3:   -0.2240455283263496E-01

    length representation:              -0.5006310586790506E-06

    length rep. / 10^(-40)erg*cm^3:     -0.3234317763322663E-01


 Dominant contributions:

      occ. orbital   energy / eV   virt. orbital     energy / eV   |coeff.|^2*100
       79 a              -3.48          82 a               0.43       92.8
 

 Change of electron number:

            -0.000000


 Electric transition dipole moment (velocity rep.):

    x       -1.820870        Norm:                  1.844666
    y        0.295339
    z        0.000245        Norm / debye:          4.688708


 Electric transition dipole moment (length rep.):

    x       -1.938613        Norm:                  1.967861
    y        0.338023
    z        0.000169        Norm / debye:          5.001843


 Magnetic transition dipole moment / i:

    x       -0.000000        Norm:                  0.000517
    y       -0.000004
    z        0.000517        Norm / Bohr mag.:      0.141638


 Electric quadrupole transition moment:

   xx       16.067973
   yy        2.256853        1/3*trace:             6.131224
   zz        0.068846
   xy       -6.354222
   xz       -0.002857        Anisotropy:           18.624759
   yz       -0.000771
 

 Excited state no.    1 chosen for optimization


                       ----------------------
                        CPKS right-hand side 
                       ----------------------


          IRREP   tensor space dimension   number of roots

           a             15471                   1

                          ----------------
                           CPKS equations 
                          ----------------


 logfile dipl_a    exists already

 found      1 converged vectors on dipl_a   
 read       1 vectors from logfile dipl_a   


 Switching to coarse grid

 preparing numerical integration ....
          Overall gridpoints after grid construction =        122141


                       Nonorthonormal Krylov Space Iteration


 total number of roots to be determined:   1


 maximum core memory set to   500 MB,
 corresponding to      754 vectors in CAO basis


 maximum number of simultaneously treated vectors (including degeneracy):        1


 Iteration IRREP Converged      Max. Euclidean
                 roots          residual norm

    1       a        0        3.258790589630815D-05
 
    2       a        0        1.991698630605443D-05
 
    3       a        1        4.537644408962083D-06
 

 converged!


 Switching to fine grid

 preparing numerical integration ....
          Overall gridpoints after grid construction =        372403

 Iteration IRREP Converged      Max. Euclidean
                 roots          residual norm

    4       a        0        9.787190032966794D-02
 

 NOTE: Residual norms are larger than 1.00D-05 due to mgrid option!

 Eigenpairs written on logfile dipl_a   



 IRREP   Vector     Frequency            Euclidean residual norm

  a         1    0.000000000000000D+00    9.787190032966794D-02
 

                          -------------------
                           relaxed densities 
                          -------------------


    ----------------------------------------
     S+T+V CONTRIBUTIONS TO ENERGY GRADIENT 
    ----------------------------------------

 1e-integral 1st. derivatives will be neglected if expon. factor < 0.100000E-10


    -----------------------------------------------
     TWO ELECTRON CONTRIBUTIONS TO ENERGY GRADIENT 
    -----------------------------------------------

 setting up bound for integral derivative estimation

 increment for numerical differentiation : 0.00050000

 biggest AO integral is expected to be    21.668154127
 biggest cartesian 1st derivative AO integral is expected to be    83.347447328

 biggest 1-particle AO density matrix element is expected to be    3.2085601268

 core memory to be involved in 2e-gradient :
   symmetry shell pair data              :         1
   two particle density+dens. estimates  :      8556
   derivative integrals                  :      8498
   derivative integral bound             :     21780
   totally                               :     30276


 setting up bound for integral derivative estimation

 increment for numerical differentiation : 0.00050000

 biggest AO integral is expected to be    21.668154127
 biggest cartesian 1st derivative AO integral is expected to be    83.347447328

 2e-integral 1st. derivatives will be neglected if expon. factor < 0.100000E-06
 outer boundary for 2e-integral derivative neglection is 0.161893E-08

 Integrated ground state density     :   161.9999985603114    


          ------------------------------------------------
           cartesian gradient of the energy (hartree/bohr)
          ------------------------------------------------

  ATOM      1 o           2 c           3 c           4 c           5 c 
dE/dx  0.3861786D-05 -0.3375713D-05 -0.7637532D-05  0.2893703D-04 -0.4079822D-04
dE/dy -0.5049111D-06  0.1059260D-04  0.4932362D-05 -0.2046644D-04  0.3347513D-04
dE/dz  0.2662960D-05  0.1072964D-04 -0.1018446D-04 -0.1136358D-04  0.1456460D-04

  ATOM      6 c           7 c           8 s           9 c          10 n 
dE/dx  0.2709752D-04 -0.9061221D-05 -0.6199917D-05 -0.2862864D-04  0.3471421D-04
dE/dy -0.3126792D-05  0.2219473D-04  0.1093359D-04 -0.1808640D-04 -0.1613599D-05
dE/dz  0.1511740D-04 -0.4055030D-04 -0.5962659D-05 -0.7018577D-05  0.8344046D-05

  ATOM     11 c          12 s          13 n          14 c          15 c 
dE/dx  0.2304393D-04 -0.1060713D-04 -0.6158172D-05  0.2281538D-05  0.1481597D-05
dE/dy -0.2422819D-04  0.1376909D-06  0.6853580D-05 -0.1602958D-04  0.7526362D-05
dE/dz  0.1245820D-04 -0.3662699D-05 -0.1151198D-04  0.3113688D-05 -0.3564870D-05

  ATOM     16 h          17 h          18 o          19 h          20 br
dE/dx -0.4390935D-05 -0.4259957D-05 -0.1332543D-05  0.1326072D-05 -0.8110981D-05
dE/dy -0.1185780D-04 -0.1110415D-04 -0.3977333D-05  0.8237894D-05  0.3849246D-05
dE/dz  0.7540234D-05 -0.4460087D-05  0.3378001D-05  0.1433402D-04  0.1111743D-04

  ATOM     21 h 
dE/dx -0.7279459D-05
dE/dy -0.8075308D-06
dE/dz -0.4957056D-05
 
 resulting FORCE  (fx,fy,fz) = (-.151D-04,-.307D-05,0.124D-06)
 resulting MOMENT (mx,my,mz) = (-.796D-06,-.412D-05,-.735D-03)


 **********************************************************************
  |maximum component of gradient| : 0.40798216E-04  (atom  5 c )       
   gradient norm                  : 0.11667462E-03
 **********************************************************************

 exx =       0.000042 eyy =       0.000119 ezz =       0.000020
 eyz =      -0.000002 exz =       0.000002 exy =      -0.000380

   ***  cartesian gradients written onto <gradient>  ***
 
 
 
 ==============================================================================
                           electrostatic moments
 ==============================================================================

 reference point for electrostatic moments:    0.00000   0.00000   0.00000

 
              nuc           gs,e       ->  gs,tot          excit     ->  total
 ------------------------------------------------------------------------------
                          charge      
 ------------------------------------------------------------------------------
         161.000000    -162.000000      -1.000000      -0.000000      -1.000000
 
 ------------------------------------------------------------------------------
                       dipole moment  
 ------------------------------------------------------------------------------
   x    -831.731015     837.538046       5.807031      -1.153124       4.653907
   y     479.839203    -484.887893      -5.048690       0.936422      -4.112269
   z       0.060846      -0.055219       0.005627      -0.002231       0.003396
 
   | dipole moment | =     6.2104 a.u. =    15.7854 debye 
 
 ------------------------------------------------------------------------------
                     quadrupole moment
 ------------------------------------------------------------------------------
  xx   12052.223148  -12244.167452    -191.944304       2.837751    -189.106554
  yy    2375.777107   -2499.749774    -123.972667       8.103725    -115.868942
  zz       5.692029     -98.540921     -92.848892       0.112074     -92.736818
  xy   -2596.819602    2623.063277      26.243675      -9.974890      16.268786
  xz      -5.191645       5.214617       0.022972       0.021992       0.044964
  yz      -2.760438       2.808252       0.047814      -0.012938       0.034876
 
     1/3  trace=    -132.570771
     anisotropy=      91.580644
 
 ==============================================================================
 


    ------------------------------------------------------------------------
         total  cpu-time :  3 minutes and 36 seconds
         total wall-time :  3 minutes and 36 seconds
    ------------------------------------------------------------------------

   ****  egrad : all done  ****


    2018-02-07 17:12:04.985 

 egrad ended normally
