 operating system is UNIX !

 escf (nile) : TURBOMOLE V7.2 ( 21287 ) 3 Jul 2017 at 09:33:16
 Copyright (C) 2017 TURBOMOLE GmbH, Karlsruhe


    2018-02-07 14:21:20.318 




                                e s c f

                             TURBOMOLE GmbH


          integral direct evaluation of 

                    * excitation energies and transition moments 
                    * dynamic response properties 
                    * stabilities



          references (see also programs dscf and ridft) 

          implementation and benchmarks (review) 
          F. Furche and D. Rappoport,  
          "Density functional methods for excited states: 
          equilibrium structure and electronic spectra",
          ch. III of "Computational Photochemistry", ed. by 
          M. Olivucci, vol. 16 of "Theoretical and Computational 
          Chemistry", Elsevier, Amsterdam, 2005.

          nonorthonormal Krylov space methods 
          F. Furche, B. T. Krull, B. D. Nguyen, J. Kwon, 
          J. Chem. Phys. 144 (2016), 174105.

          two-component GW quasi particle energies 
          M. Kuehn and F. Weigend, 
          J. Chem. Theory Comput. 11 (2015), 969.

          two-component TDDFT with spin-orbit coupling 
          M. Kuehn and F. Weigend, 
          J. Chem. Theory Comput. 9 (2013), 5341.
          M. Kuehn and F. Weigend, 
          J. Chem. Phys. 142 (2015), 034116.

          GW quasi particle energies
          M. J. van Setten, F. Weigend, and F. Evers,
          J. Chem. Theory Comput. 9 (2013), 232.

          current-density dependent meta-GGA Linear Response
          J. E. Bates and F. Furche, 
          J. Chem. Phys. 137 (2012), 164105.

          spin-flip method 
          M. Kuehn and F. Weigend, 
          Chem. Phys. Chem. 12 (2011), 3331.

          RI-J method 
          R. Bauernschmitt, M. Haeser, O. Treutler, and R. Ahlrichs,
          Chem. Phys. Lett. 264 (1997), 573.

          density functional implementation               
          R. Bauernschmitt and R. Ahlrichs,
          Chem. Phys. Lett. 256 (1996), 454.
          R. Bauernschmitt and R. Ahlrichs,
          J. Chem. Phys. 104 (1996), 9047.

          UHF extension (RPA and CIS)
          C. Ochsenfeld, J. Gauss, and R. Ahlrichs, 
          J. Chem. Phys. 103 (1995), 7401.

          integral direct algorithm                 
          H. Weiss, R. Ahlrichs, and M. Haeser, 
          J. Chem. Phys. 99 (1993), 1262.
                                     




              +--------------------------------------------------+
              | Atomic coordinate, charge and isotop information |
              +--------------------------------------------------+

                    atomic coordinates            atom    charge  isotop
        -12.83202740    6.71970485   -0.00604271    o      8.000     0
        -10.80650799    5.57110381   -0.00385515    c      6.000     0
         -8.36198721    6.81363152   -0.00915063    c      6.000     0
         -6.14906506    5.45490310   -0.00654863    c      6.000     0
         -6.11526911    2.73212826    0.00161957    c      6.000     0
         -8.46333803    1.42389389    0.00716915    c      6.000     0
        -10.66123886    2.77371688    0.00448341    c      6.000     0
         -3.03107753    6.52192531   -0.01174381    s     16.000     0
         -2.00473443    3.33820867   -0.00282513    c      6.000     0
         -3.83381402    1.65017033    0.00341566    n      7.000     0
          0.60052907    2.71927302   -0.00256824    c      6.000     0
          1.41322631   -0.55092500    0.00674250    s     16.000     0
          2.43485920    4.36549966   -0.00863774    n      7.000     0
          4.78948512    3.27701439   -0.00695775    c      6.000     0
          4.69307878    0.35189760    0.00191174    c      6.000     0
          5.68509880   -0.36193176    1.68997508    h      1.000     0
          5.68292038   -0.37208823   -1.68310260    h      1.000     0
          6.78945729    4.38647329   -0.01166079    o      8.000     0
         -8.39328850    8.87904963   -0.01529397    h      1.000     0
        -13.79775144    1.06154888    0.01157913    br    35.000     0
         -8.45594638   -0.64076719    0.01358020    h      1.000     0
 
       center of nuclear mass  :   -5.44332432    2.92404795    0.00064864
       center of nuclear charge:   -5.13848240    2.96824981    0.00032233

              +--------------------------------------------------+
              |               basis set information              |
              +--------------------------------------------------+

              we will work with the 1s 3p 5d 7f 9g ... basis set
              ...i.e. with spherical basis functions...

   type   atoms  prim   cont   basis
   ---------------------------------------------------------------------------
    o        2     24     14   def2-SV(P)   [3s2p1d|7s4p1d]
    c       10     24     14   def2-SV(P)   [3s2p1d|7s4p1d]
    s        2     36     18   def2-SV(P)   [4s3p1d|10s7p1d]
    n        2     24     14   def2-SV(P)   [3s2p1d|7s4p1d]
    h        4      4      2   def2-SV(P)   [2s|4s]
    br       1     74     32   def2-SV(P)   [5s4p3d|14s10p6d]
   ---------------------------------------------------------------------------
   total:   21    498    272
   ---------------------------------------------------------------------------

   total number of primitive shells          :   88
   total number of contracted shells         :  120
   total number of cartesian basis functions :  291
   total number of SCF-basis functions       :  272


 residuum convergence criterium   :  0.10E-04


 integral neglect threshold       :  0.11E-10
 integral storage threshold THIZE :  0.10E-04
 integral storage threshold THIME :         5

 
             FOUND RI-J FLAG !
 
  
 AUXILIARY BASIS SET information:

              we will work with the 1s 3p 5d 7f 9g ... basis set
              ...i.e. with spherical basis functions...

   type   atoms  prim   cont   basis
   ---------------------------------------------------------------------------
    o        2     70     49   def2-SV(P)   [6s4p3d1f1g|12s5p4d2f1g]
    c       10     70     49   def2-SV(P)   [6s4p3d1f1g|12s5p4d2f1g]
    s        2     77     51   def2-SV(P)   [8s4p3d1f1g|14s5p5d2f1g]
    n        2     70     49   def2-SV(P)   [6s4p3d1f1g|12s5p4d2f1g]
    h        4     16     11   def2-SV(P)   [3s1p1d|5s2p1d]
    br       1     89     58   def2-SV(P)   [8s4p3d2f1g|19s5p5d3f1g]
   ---------------------------------------------------------------------------
   total:   21   1287    890
   ---------------------------------------------------------------------------

   total number of primitive shells          :  140
   total number of contracted shells         :  282
   total number of cartesian basis functions : 1101
   total number of SCF-basis functions       :  890

 RPA SINGLET-EXCITATION-CALCULATION 
 
             FOUND DFT-FLAG !
 

 symmetry group of the molecule :   c1 

 the group has the following generators :
   c1(z)

    1 symmetry operations found

 there are 1 real representations :   a   

 maximum number of shells which are related by symmetry :  1

 IRREPs of excited states :   a   
 

 determining totally symmetric integral contributions 
    - equivalent to irreducible tensor elements - 
 which can be formed within each triple of representations :

             representation triple      contributions

              a     a     a               1

    mo occupation :
   irrep   mo's   occupied
    a      272       81
 
 number of basis functions   :                    272
 number of occupied orbitals :                     81
 
  
           ------------------
           density functional
           ------------------
 PBE0 hybrid functional
 exchange:    3/4 (LDA+PBE) + 1/4 HF
 correlation: LDA (PW) + PBE

 iterations will be done with small grid
  
 spherical integration : Lebedev's spherical grid
 spherical gridsize    :                     5
    i.e. gridpoints    :                   590
 value for diffuse not defined
 radial integration    : Chebyshev 2nd kind (scaling 3)
 radial gridsize       :                     8
 integration cells     :                    21
 partition function    : becke
 partition sharpness   :                     3
  
  
           ----------------------
               RI - INFORMATION
           ----------------------

 biggest AO integral is expected to be    21.668154127

 Threshold for integral neglect (rithr2):   0.11E-10
 Threshold for integral neglect (rithr1):   0.11E-10

 Contributions to RI integral batches: 
  neglected integral batches:                  2173
  direct contribution:                            0
  memory contribution:                  5087
 Core memory available (ricore)            5000 MiB
 Core memory needed for (P|Q) and Cholesky 7 MiB
 Core memory used for integrals            245 MiB
  
 ****************************************
 Memory allocated for RIDFT 251 MiB
 ****************************************
                                            
  MOs are in ASCII format !


 reading orbital data $scfmo  from file mos
 orbital characterization : scfconv=7
 preparing numerical integration ....
          Overall gridpoints after grid construction =        122159

 Calculating ground state density on molecular grid

 Integral of ground state density: N =   162.0000462538543    


 all orbitals will be included in the transformation

 number of non-frozen orbitals          :   272
 number of non-frozen occupied orbitals :    81



 dimension of super-tensorspace: 2

          IRREP   tensor space dimension   number of roots

           a             15471                   3

 maximum number of Davidson iterations set to   25


 machine precision: 2.22D-16


 logfile sing_a    will be constructed


                       Nonorthonormal Krylov Space Iteration


 total number of roots to be determined:   3


 maximum core memory set to   500 MB,
 corresponding to      379 vectors in CAO basis


 maximum number of simultaneously treated vectors (including degeneracy):        6


 Iteration IRREP Converged      Max. Euclidean
                 roots          residual norm

    1       a        0        1.645180032512339D-01
 
    2       a        0        5.146468384727676D-02
 
    3       a        0        2.134018898407569D-02
 
    4       a        0        8.307025288096284D-03
 
    5       a        0        3.335813853856189D-03
 
    6       a        0        1.519670246125085D-03
 
    7       a        0        5.460138810532564D-04
 
    8       a        0        2.095710365465919D-04
 
    9       a        1        6.712831805147376D-05
 
   10       a        1        2.220180565113586D-05
 
   11       a        3        7.497700980049643D-06
 

 converged!


 Switching to fine grid

 preparing numerical integration ....
          Overall gridpoints after grid construction =        372296

 Calculating ground state density on molecular grid

 Integral of ground state density: N =   162.0000032457818    



 Iteration IRREP Converged      Max. Euclidean
                 roots          residual norm

   12       a        3        9.838104890779496D-06
 

 converged!

 Eigenpairs written on logfile sing_a   



 IRREP   Vector     Eigenvalue           Euclidean residual norm

  a         1    9.786308775532859D-02    9.838104890779496D-06
            2    1.119359093531431D-01    4.625707442255480D-06
            3    1.279012867098133D-01    9.152690523166443D-06
 




                    Selection rules for point group c1  


 Subduction with respect to c1  :

    Polar vector representation: a                           

    Axial vector representation: a                           

    Symmetric second rank tensor representation: a                           




                            Ground state


 Total energy:                           -4011.732496633000    

 Charge:

               elec          nuc         total

          -162.000000   161.000000    -1.000000


 Electric dipole moment:

               elec          nuc         total   

    x      832.670196  -827.295667     5.374530    Norm:              7.232865
    y     -482.728545   477.888220    -4.840325
    z       -0.046705     0.051895     0.005190    Norm / debye:     18.384249


 Electric quadrupole moment:

               elec          nuc         total   

   xx   -12048.128105 11858.465409  -189.662696
   yy    -2516.234225  2394.842097  -121.392128    1/3*trace:      -134.618190
   zz      -98.500318     5.700573   -92.799745
   xy     2539.850228 -2516.707998    23.142230
   xz        4.970963    -4.946442     0.024521    Anisotropy:       95.063708
   yz        2.771529    -2.729263     0.042267



 ==============================================================================

                              I R R E P   a   

 ==============================================================================


 Excitation is electric dipole allowed

 Excitation is magnetic dipole allowed

 Excitation is electric quadrupole allowed




                         1 singlet a excitation


 Total energy:                           -4011.634633545245    

 Excitation energy:                      0.9786308775532859E-01

 Excitation energy / eV:                  2.662991251329722    

 Excitation energy / nm:                  465.5826185856179    

 Excitation energy / cm^(-1):             21478.46504426244    


 Oscillator strength:

    velocity representation:             0.5962887103040930    

    length representation:               0.6749009046977813    

    mixed representation:                0.6343772766236947    


 Rotatory strength:

    velocity representation:             0.4244503296572008E-07

    velocity rep. / 10^(-40)erg*cm^3:    0.2742153562107575E-02

    length representation:               0.1076307169430876E-07

    length rep. / 10^(-40)erg*cm^3:      0.6953462707781237E-03


 Dominant contributions:

      occ. orbital   energy / eV   virt. orbital     energy / eV   |coeff.|^2*100
       81 a              -2.15          82 a               0.59       94.0
 

 Change of electron number:

            -0.000000


 Electric transition dipole moment (velocity rep.):

    x       -3.001349        Norm:                  3.023183
    y        0.362688
    z        0.000828        Norm / debye:          7.684223


 Electric transition dipole moment (length rep.):

    x       -3.192380        Norm:                  3.216297
    y        0.391507
    z        0.000864        Norm / debye:          8.175074


 Magnetic transition dipole moment / i:

    x        0.000001        Norm:                  0.002727
    y        0.000002
    z        0.002727        Norm / Bohr mag.:      0.747528


 Electric quadrupole transition moment:

   xx       25.944560
   yy        2.702936        1/3*trace:             9.507309
   zz       -0.125568
   xy      -12.063991
   xz        0.000530        Anisotropy:           32.411914
   yz        0.001591




                         2 singlet a excitation


 Total energy:                           -4011.620560723647    

 Excitation energy:                      0.1119359093531431    

 Excitation energy / eV:                  3.045932375057586    

 Excitation energy / nm:                  407.0485773805937    

 Excitation energy / cm^(-1):             24567.09236734976    


 Oscillator strength:

    velocity representation:             0.1556932252163113E-04

    length representation:               0.9057412741409140E-07

    mixed representation:                0.1162959549039136E-05


 Rotatory strength:

    velocity representation:            -0.3400648759712122E-06

    velocity rep. / 10^(-40)erg*cm^3:   -0.2196982887833434E-01

    length representation:              -0.3451379792458481E-06

    length rep. / 10^(-40)erg*cm^3:     -0.2229757578400214E-01


 Dominant contributions:

      occ. orbital   energy / eV   virt. orbital     energy / eV   |coeff.|^2*100
       80 a              -3.46          82 a               0.59       96.7
 

 Change of electron number:

             0.000000


 Electric transition dipole moment (velocity rep.):

    x       -0.000233        Norm:                  0.014444
    y        0.000009
    z       -0.014442        Norm / debye:          0.036714


 Electric transition dipole moment (length rep.):

    x       -0.000237        Norm:                  0.001102
    y        0.000036
    z       -0.001075        Norm / debye:          0.002800


 Magnetic transition dipole moment / i:

    x        0.001324        Norm:                  0.001549
    y       -0.000804
    z        0.000002        Norm / Bohr mag.:      0.424635


 Electric quadrupole transition moment:

   xx        0.001948
   yy        0.000752        1/3*trace:             0.000704
   zz       -0.000589
   xy       -0.000585
   xz        0.068717        Anisotropy:            0.184813
   yz        0.081617




                         3 singlet a excitation


 Total energy:                           -4011.604595346290    

 Excitation energy:                      0.1279012867098133    

 Excitation energy / eV:                  3.480372583313486    

 Excitation energy / nm:                  356.2384228657186    

 Excitation energy / cm^(-1):             28071.08766669110    


 Oscillator strength:

    velocity representation:             0.1955858962374833    

    length representation:               0.2208996709532688    

    mixed representation:                0.2078418933206202    


 Rotatory strength:

    velocity representation:             0.2424822736676566E-06

    velocity rep. / 10^(-40)erg*cm^3:    0.1566552277206903E-01

    length representation:               0.1743480195430907E-06

    length rep. / 10^(-40)erg*cm^3:      0.1126372179337466E-01


 Dominant contributions:

      occ. orbital   energy / eV   virt. orbital     energy / eV   |coeff.|^2*100
       79 a              -3.61          82 a               0.59       95.0
 

 Change of electron number:

            -0.000000


 Electric transition dipole moment (velocity rep.):

    x       -1.493343        Norm:                  1.514527
    y        0.252427
    z        0.000193        Norm / debye:          3.849572


 Electric transition dipole moment (length rep.):

    x       -1.583602        Norm:                  1.609555
    y        0.287871
    z        0.000139        Norm / debye:          4.091111


 Magnetic transition dipole moment / i:

    x       -0.000001        Norm:                  0.000177
    y       -0.000004
    z        0.000177        Norm / Bohr mag.:      0.048393


 Electric quadrupole transition moment:

   xx       12.748248
   yy        2.091034        1/3*trace:             4.978167
   zz        0.095218
   xy       -4.840210
   xz       -0.002916        Anisotropy:           14.460715
   yz       -0.001245


    ------------------------------------------------------------------------
         total  cpu-time :  5 minutes and  1 seconds
         total wall-time :  5 minutes and  2 seconds
    ------------------------------------------------------------------------

   ****  escf : all done  ****


    2018-02-07 14:26:22.066 

 escf ended normally
