
Wed Feb  7 14:37:14 PST 2018
jobex WAS CALLED AS: jobex -ex -ri -c 300 -outfile exopt.out
AN OPTIMIZATION WITH MAX. 300 CYCLES WILL BE PERFORMED
CONVERGENCY CRITERION FOR TOTAL SCF-ENERGY IS 10**(-6)
CONVERGENCY CRITERION FOR MAXIMUM NORM OF SCF-ENERGY GRADIENT IS 10**(-3)
CONVERGENCY CRITERION FOR MAXIMUM NORM OF BASIS SET GRADIENT IS 10**(-3)
PROCEDURE WILL START WITH A dscf like STEP
AN EXCITED STATE GEOMETRY OPTIMIZATION WILL BE PERFORMED
LOAD MODULES WILL BE TAKEN FROM DIRECTORY /modfac/apps/TURBOMOLE/7.2-official/bin/em64t-unknown-linux-gnu
DSCF  = /modfac/apps/TURBOMOLE/7.2-official/bin/em64t-unknown-linux-gnu/ridft
GRAD  = /modfac/apps/TURBOMOLE/7.2-official/bin/em64t-unknown-linux-gnu/egrad
STATPT = /modfac/apps/TURBOMOLE/7.2-official/bin/em64t-unknown-linux-gnu/statpt

 operating system is UNIX !

 ridft (nile) : TURBOMOLE V7.2 ( 21285 ) 30 Jun 2017 at 11:51:10
 Copyright (C) 2017 TURBOMOLE GmbH, Karlsruhe


    2018-02-07 14:37:14.665 



                                  r i d f t

                        DFT program with RI approximation 
                                for coulomb part 




                                                 
                                 References:     
                                                 
          TURBOMOLE:                             
              R. Ahlrichs, M. Baer, M. Haeser, H. Horn, and
              C. Koelmel
              Electronic structure calculations on workstation
              computers: the program system TURBOMOLE
              Chem. Phys. Lett. 162: 165 (1989)
          Density Functional:                              
              O. Treutler and R. Ahlrichs                      
              Efficient Molecular Numerical Integration Schemes
              J. Chem. Phys. 102: 346 (1995)                   
          Parallel Version:                                
              Performance of parallel TURBOMOLE for Density    
              Functional Calculations                          
              M. v. Arnim and R. Ahlrichs                      
              J. Comp. Chem. 19: 1746 (1998)                   
          RI-J Method:                                     
              Auxiliary Basis Sets to approximate Coulomb      
              Potentials                                       
              Chem. Phys. Lett. 240: 283 (1995)                
              K. Eichkorn, O. Treutler, H. Oehm, M. Haeser     
              and R. Ahlrichs                                  
              Chem. Phys. Lett. 242: 652 (1995)                
                                                           
              Auxiliary Basis Sets for Main Row Atoms and their
              Use to approximate Coulomb Potentials            
              K. Eichkorn, F. Weigend, O. Treutler and         
              R. Ahlrichs                                      
              Theo. Chem. Acc. 97: 119 (1997)                   
                                                           
              Accurate Coulomb-fitting basis sets for H to Rn 
              F. Weigend                                        
              Phys. Chem. Chem. Phys. 8: 1057 (2006)            
                                                           
          Multipole accelerated RI-J (MARI-J):             
              Fast evaluation of the Coulomb potential for     
              electron densities using multipole accelerated   
              resolution of identity approximation             
              M. Sierka, A. Hogekamp and R. Ahlrichs           
              J. Chem. Phys. 118: 9136 (2003)                  
          RI-JK Method:                                     
              A fully direct RI-HF algorithm: Implementation,
              optimised auxiliary basis sets, demonstration of
              accuracy and efficiency                         
              F. Weigend                                      
              Phys. Chem. Chem. Phys. 4: 4285 (2002)           
          Two-component HF and DFT with spin-orbit coupling:  
              Self-consistent treatment of spin-orbit         
              interactions with efficient Hartree-Fock and    
              density functional methods                      
              M. K. Armbruster, F. Weigend, C. van Wüllen and 
              W. Klopper                                      
              Phys. Chem. Chem. Phys. 10: 1748 (2008)         
          Relativistic all-electron 2c calculations           
              An efficient implementation of two-component    
              relativistic exact-decoupling methods for large 
              molecules                                       
              D. Peng, N. Middendorf, F. Weigend, M. Reiher   
              J. Chem. Phys. 138, 184105 (2013)               
                                         




              +--------------------------------------------------+
              |      general information about current run       |
              +--------------------------------------------------+

 

 DENSITY CONVERGENCE CHECK SWITCHED ON !
 SCF CONVERGENCE IF RMS(delta[D]) <     0.1000000000E-06

 PBE0 hybrid functional
 exchange:    3/4 (LDA+PBE) + 1/4 HF
 correlation: LDA (PW) + PBE
 A Hybrid-DFT calculation using the RI-J approximation will be carried out.
 Allocatable memory for RI due to $ricore (MB):                  5000


              +--------------------------------------------------+
              | Atomic coordinate, charge and isotop information |
              +--------------------------------------------------+

                    atomic coordinates            atom    charge  isotop
        -12.83202740    6.71970485   -0.00604271    o      8.000     0
        -10.80650799    5.57110381   -0.00385515    c      6.000     0
         -8.36198721    6.81363152   -0.00915063    c      6.000     0
         -6.14906506    5.45490310   -0.00654863    c      6.000     0
         -6.11526911    2.73212826    0.00161957    c      6.000     0
         -8.46333803    1.42389389    0.00716915    c      6.000     0
        -10.66123886    2.77371688    0.00448341    c      6.000     0
         -3.03107753    6.52192531   -0.01174381    s     16.000     0
         -2.00473443    3.33820867   -0.00282513    c      6.000     0
         -3.83381402    1.65017033    0.00341566    n      7.000     0
          0.60052907    2.71927302   -0.00256824    c      6.000     0
          1.41322631   -0.55092500    0.00674250    s     16.000     0
          2.43485920    4.36549966   -0.00863774    n      7.000     0
          4.78948512    3.27701439   -0.00695775    c      6.000     0
          4.69307878    0.35189760    0.00191174    c      6.000     0
          5.68509880   -0.36193176    1.68997508    h      1.000     0
          5.68292038   -0.37208823   -1.68310260    h      1.000     0
          6.78945729    4.38647329   -0.01166079    o      8.000     0
         -8.39328850    8.87904963   -0.01529397    h      1.000     0
        -13.79775144    1.06154888    0.01157913    br    35.000     0
         -8.45594638   -0.64076719    0.01358020    h      1.000     0
 
       center of nuclear mass  :   -5.44332432    2.92404795    0.00064864
       center of nuclear charge:   -5.13848240    2.96824981    0.00032233

              +--------------------------------------------------+
              |               basis set information              |
              +--------------------------------------------------+

              we will work with the 1s 3p 5d 7f 9g ... basis set
              ...i.e. with spherical basis functions...

   type   atoms  prim   cont   basis
   ---------------------------------------------------------------------------
    o        2     24     14   def2-SV(P)   [3s2p1d|7s4p1d]
    c       10     24     14   def2-SV(P)   [3s2p1d|7s4p1d]
    s        2     36     18   def2-SV(P)   [4s3p1d|10s7p1d]
    n        2     24     14   def2-SV(P)   [3s2p1d|7s4p1d]
    h        4      4      2   def2-SV(P)   [2s|4s]
    br       1     74     32   def2-SV(P)   [5s4p3d|14s10p6d]
   ---------------------------------------------------------------------------
   total:   21    498    272
   ---------------------------------------------------------------------------

   total number of primitive shells          :   88
   total number of contracted shells         :  120
   total number of cartesian basis functions :  291
   total number of SCF-basis functions       :  272


 integral neglect threshold       :  0.11E-10
 integral storage threshold THIZE :  0.10E-04
 integral storage threshold THIME :         5

 RI-J AUXILIARY BASIS SET information:

              we will work with the 1s 3p 5d 7f 9g ... basis set
              ...i.e. with spherical basis functions...

   type   atoms  prim   cont   basis
   ---------------------------------------------------------------------------
    o        2     70     49   def2-SV(P)   [6s4p3d1f1g|12s5p4d2f1g]
    c       10     70     49   def2-SV(P)   [6s4p3d1f1g|12s5p4d2f1g]
    s        2     77     51   def2-SV(P)   [8s4p3d1f1g|14s5p5d2f1g]
    n        2     70     49   def2-SV(P)   [6s4p3d1f1g|12s5p4d2f1g]
    h        4     16     11   def2-SV(P)   [3s1p1d|5s2p1d]
    br       1     89     58   def2-SV(P)   [8s4p3d2f1g|19s5p5d3f1g]
   ---------------------------------------------------------------------------
   total:   21   1287    890
   ---------------------------------------------------------------------------

   total number of primitive shells          :  140
   total number of contracted shells         :  282
   total number of cartesian basis functions : 1101
   total number of SCF-basis functions       :  890


 symmetry group of the molecule :   c1 

 the group has the following generators :
   c1(z)

    1 symmetry operations found

 there are 1 real representations :   a   

 maximum number of shells which are related by symmetry :  1


    mo occupation :
   irrep   mo's   occupied
    a      272       81
 
 number of basis functions   :                    272
 number of occupied orbitals :                     81
 
  
           ------------------
           density functional
           ------------------
 PBE0 hybrid functional
 exchange:    3/4 (LDA+PBE) + 1/4 HF
 correlation: LDA (PW) + PBE

 iterations will be done with small grid
  
 spherical integration : Lebedev's spherical grid
 spherical gridsize    :                     5
    i.e. gridpoints    :                   590
 value for diffuse not defined
 radial integration    : Chebyshev 2nd kind (scaling 3)
 radial gridsize       :                     8
 integration cells     :                    21
 partition function    : becke
 partition sharpness   :                     3
  

 biggest AO integral is expected to be    21.668154127
  
           ------------------------
               RI-J - INFORMATION
           ------------------------
 Contributions to RI integral batches: 
  neglected integral batches:                  2322
  direct contribution:                            0
  memory contribution:                  4938
 Memory core needed for (P|Q) and Cholesky      7 MByte
 Memory core minimum needed except of (P|Q)     1 MByte
 Total minimum memory core needed (sum)         7 MByte
  
 ****************************************
 Memory allocated for RI-J   244 MByte
 ****************************************
                                            

          ------------------------
          nuclear repulsion energy  :   1651.56749296    
          ------------------------


         -----------------
         -S,T+V- integrals
         -----------------

 1e-integrals will be neglected if expon. factor < 0.114844E-11
 
   Difference densities algorithm switched on.
   The maximal number of linear combinations of
   difference densities is                    20 .

 DIIS switched on: error vector is FDS-SDF
 Max. Iterations for DIIS is     :   4
 DIIS matrix (see manual) 
    Scaling factor of diagonals  :  1.200
    threshold for scaling factor :  0.000

 scf convergence criterion : increment of total energy < .1000000D-06
                  and increment of one-electron energy < .1000000D-03

  MOs are in ASCII format !


 automatic virtual orbital shift switched on 
      shift if e(lumo)-e(homo) < 0.10000000    


 reading orbital data $scfmo  from file mos
 orbital characterization : scfconv=7

 DSCF restart information will be dumped onto file mos


 Starting SCF iterations

          Overall gridpoints after grid construction =        122159

 ITERATION  ENERGY          1e-ENERGY        2e-ENERGY     RMS[dD(SAO)]   TOL
   1  -4011.7325005398    -8863.6348190     3200.3348255    0.000D+00 0.115D-10
                            Exc = -172.745800009     Coul =  3428.74765239    
                            exK = -55.6670268479    
                              N = 162.00004625    
                            current damping = 0.700
 
          max. resid. norm for Fia-block=  1.645D-05 for orbital      1a         
          max. resid. fock norm         =  4.498D-05 for orbital    202a         

 ITERATION  ENERGY          1e-ENERGY        2e-ENERGY     RMS[dD(SAO)]   TOL
   2  -4011.7325005447    -8863.6348495     3200.3348560    0.652D-06 0.726D-11
                            Exc = -172.745795106      Eck =  3373.08065109    
                              N = 162.00004625    
                            current damping = 0.700
 
          Norm of current diis error: 0.80360E-04
          max. resid. norm for Fia-block=  8.062D-06 for orbital     66a         
          max. resid. fock norm         =  1.896D-05 for orbital    202a         

 ENERGY & DENSITY CONVERGED !

          Overall gridpoints after grid construction =        372296

 ITERATION  ENERGY          1e-ENERGY        2e-ENERGY     RMS[dD(SAO)]   TOL
   3  -4011.7324966388    -8863.6348168     3200.3348272    0.494D-06 0.639D-11
                            Exc = -172.745797096      Eck =  3373.08062428    
                              N = 162.00000325    
                            current damping = 0.750
 
          Norm of current diis error: 0.63445E-04
          max. resid. norm for Fia-block=  3.576D-06 for orbital     66a         
          max. resid. fock norm         =  7.864D-06 for orbital    202a         

 End of SCF iterations

   convergence criteria satisfied after    3 iterations


                  ------------------------------------------ 
                 |  total energy      =  -4011.73249663883  |
                  ------------------------------------------ 
                 :  kinetic energy    =   4002.44205695927  :
                 :  potential energy  =  -8014.17455359809  :
                 :  virial theorem    =      1.99768418266  :
                 :  wavefunction norm =      1.00000000000  :
                  .......................................... 


 orbitals $scfmo  will be written to file mos

    irrep                 77a         78a         79a         80a         81a   
 eigenvalues H         -0.16824    -0.15796    -0.13282    -0.12701    -0.07919
            eV          -4.5780     -4.2983     -3.6141     -3.4561     -2.1550
 occupation              2.0000      2.0000      2.0000      2.0000      2.0000 

    irrep                 82a         83a         84a         85a         86a   
 eigenvalues H          0.02172     0.10814     0.11899     0.13119     0.13484
            eV           0.5911      2.9427      3.2378      3.5699      3.6692
 
 
 
 
 ==============================================================================
                           electrostatic moments
 ==============================================================================

 reference point for electrostatic moments:    0.00000   0.00000   0.00000

 
              nuc           elec       ->  total
 ------------------------------------------------------------------------------
                          charge      
 ------------------------------------------------------------------------------
         161.000000    -162.000000      -1.000000
 
 ------------------------------------------------------------------------------
                       dipole moment  
 ------------------------------------------------------------------------------
   x    -827.295667     832.670319       5.374653
   y     477.888220    -482.728561      -4.840341
   z       0.051895      -0.046690       0.005205
 
   | dipole moment | =     7.2330 a.u. =    18.3844 debye 
 
 ------------------------------------------------------------------------------
                     quadrupole moment
 ------------------------------------------------------------------------------
  xx   11858.465409  -12048.129525    -189.664116
  yy    2394.842097   -2516.234382    -121.392285
  zz       5.700573     -98.500319     -92.799747
  xy   -2516.707998    2539.850924      23.142926
  xz      -4.946442       4.970785       0.024342
  yz      -2.729263       2.771652       0.042390
 
     1/3  trace=    -134.618716
     anisotropy=      95.065416
 
 ==============================================================================
 


    ------------------------------------------------------------------------
         total  cpu-time :  22.02 seconds
         total wall-time :  22.03 seconds
    ------------------------------------------------------------------------

   ****  ridft : all done  ****


    2018-02-07 14:37:36.689 

fine, there is no data group "$actual step"
next step = egrad

 egrad (nile) : TURBOMOLE V7.2 ( 21285 ) 30 Jun 2017 at 11:51:10
 Copyright (C) 2017 TURBOMOLE GmbH, Karlsruhe


    2018-02-07 14:37:36.710 




                               e g r a d

                             TURBOMOLE GmbH


             integral direct evaluation of excited state
                     and polarizability gradients
                 and first-order nonadiabatic couplings



          references (see also programs escf, dscf and ridft) 

          review 
          F. Furche and D. Rappoport,  
          "Density functional methods for excited states: 
          equilibrium structure and electronic spectra",
          ch. III of "Computational Photochemistry", ed. by 
          M. Olivucci, vol. 16 of "Theoretical and Computational 
          Chemistry", Elsevier, Amsterdam, 2005.

          nonorthonormal Krylov space methods 
          F. Furche, B. T. Krull, B. D. Nguyen, J. Kwon, 
          J. Chem. Phys. 144 (2016), 174105.

          RI-J method 
          D. Rappoport and F. Furche, 
          J. Chem. Phys. 122 (2005), 064105.

          Lagrangian method, implementation, benchmarks 
          F. Furche and R. Ahlrichs,
          J. Chem. Phys. 117 (2002), 7433;
          J. Chem. Phys. 121 (2004), 12772 (E).

          Polarizability derivatives, Raman intensities 
          D. Rappoport and F. Furche, 
          J. Chem. Phys. 126 (2007), 201104.

          First-order nonadiabatic couplings 
          R. Send and F. Furche, 
          J. Chem. Phys. 132 (2010), 044107.
                                     




              +--------------------------------------------------+
              | Atomic coordinate, charge and isotop information |
              +--------------------------------------------------+

                    atomic coordinates            atom    charge  isotop
        -12.83202740    6.71970485   -0.00604271    o      8.000     0
        -10.80650799    5.57110381   -0.00385515    c      6.000     0
         -8.36198721    6.81363152   -0.00915063    c      6.000     0
         -6.14906506    5.45490310   -0.00654863    c      6.000     0
         -6.11526911    2.73212826    0.00161957    c      6.000     0
         -8.46333803    1.42389389    0.00716915    c      6.000     0
        -10.66123886    2.77371688    0.00448341    c      6.000     0
         -3.03107753    6.52192531   -0.01174381    s     16.000     0
         -2.00473443    3.33820867   -0.00282513    c      6.000     0
         -3.83381402    1.65017033    0.00341566    n      7.000     0
          0.60052907    2.71927302   -0.00256824    c      6.000     0
          1.41322631   -0.55092500    0.00674250    s     16.000     0
          2.43485920    4.36549966   -0.00863774    n      7.000     0
          4.78948512    3.27701439   -0.00695775    c      6.000     0
          4.69307878    0.35189760    0.00191174    c      6.000     0
          5.68509880   -0.36193176    1.68997508    h      1.000     0
          5.68292038   -0.37208823   -1.68310260    h      1.000     0
          6.78945729    4.38647329   -0.01166079    o      8.000     0
         -8.39328850    8.87904963   -0.01529397    h      1.000     0
        -13.79775144    1.06154888    0.01157913    br    35.000     0
         -8.45594638   -0.64076719    0.01358020    h      1.000     0
 
       center of nuclear mass  :   -5.44332432    2.92404795    0.00064864
       center of nuclear charge:   -5.13848240    2.96824981    0.00032233

              +--------------------------------------------------+
              |               basis set information              |
              +--------------------------------------------------+

              we will work with the 1s 3p 5d 7f 9g ... basis set
              ...i.e. with spherical basis functions...

   type   atoms  prim   cont   basis
   ---------------------------------------------------------------------------
    o        2     24     14   def2-SV(P)   [3s2p1d|7s4p1d]
    c       10     24     14   def2-SV(P)   [3s2p1d|7s4p1d]
    s        2     36     18   def2-SV(P)   [4s3p1d|10s7p1d]
    n        2     24     14   def2-SV(P)   [3s2p1d|7s4p1d]
    h        4      4      2   def2-SV(P)   [2s|4s]
    br       1     74     32   def2-SV(P)   [5s4p3d|14s10p6d]
   ---------------------------------------------------------------------------
   total:   21    498    272
   ---------------------------------------------------------------------------

   total number of primitive shells          :   88
   total number of contracted shells         :  120
   total number of cartesian basis functions :  291
   total number of SCF-basis functions       :  272


 residuum convergence criterium   :  0.10E-04


 integral neglect threshold       :  0.11E-10
 integral storage threshold THIZE :  0.10E-04
 integral storage threshold THIME :         5

 
             FOUND RI-J FLAG !
 
  
 AUXILIARY BASIS SET information:

              we will work with the 1s 3p 5d 7f 9g ... basis set
              ...i.e. with spherical basis functions...

   type   atoms  prim   cont   basis
   ---------------------------------------------------------------------------
    o        2     70     49   def2-SV(P)   [6s4p3d1f1g|12s5p4d2f1g]
    c       10     70     49   def2-SV(P)   [6s4p3d1f1g|12s5p4d2f1g]
    s        2     77     51   def2-SV(P)   [8s4p3d1f1g|14s5p5d2f1g]
    n        2     70     49   def2-SV(P)   [6s4p3d1f1g|12s5p4d2f1g]
    h        4     16     11   def2-SV(P)   [3s1p1d|5s2p1d]
    br       1     89     58   def2-SV(P)   [8s4p3d2f1g|19s5p5d3f1g]
   ---------------------------------------------------------------------------
   total:   21   1287    890
   ---------------------------------------------------------------------------

   total number of primitive shells          :  140
   total number of contracted shells         :  282
   total number of cartesian basis functions : 1101
   total number of SCF-basis functions       :  890

 RPA SINGLET-EXCITATION-CALCULATION 
 
             FOUND DFT-FLAG !
 

 symmetry group of the molecule :   c1 

 the group has the following generators :
   c1(z)

    1 symmetry operations found

 there are 1 real representations :   a   

 maximum number of shells which are related by symmetry :  1

 IRREP of excited state :   a   
 

 determining totally symmetric integral contributions 
    - equivalent to irreducible tensor elements - 
 which can be formed within each triple of representations :

             representation triple      contributions

              a     a     a               1

    mo occupation :
   irrep   mo's   occupied
    a      272       81
 
 number of basis functions   :                    272
 number of occupied orbitals :                     81
 
  
           ------------------
           density functional
           ------------------
 PBE0 hybrid functional
 exchange:    3/4 (LDA+PBE) + 1/4 HF
 correlation: LDA (PW) + PBE

 iterations will be done with small grid
  
 spherical integration : Lebedev's spherical grid
 spherical gridsize    :                     5
    i.e. gridpoints    :                   590
 value for diffuse not defined
 radial integration    : Chebyshev 2nd kind (scaling 3)
 radial gridsize       :                     8
 integration cells     :                    21
 partition function    : becke
 partition sharpness   :                     3
  
  
           ----------------------
               RI - INFORMATION
           ----------------------

 biggest AO integral is expected to be    21.668154127

 Threshold for integral neglect (rithr2):   0.11E-10
 Threshold for integral neglect (rithr1):   0.11E-10

 Contributions to RI integral batches: 
  neglected integral batches:                  2173
  direct contribution:                            0
  memory contribution:                  5087
 Core memory available (ricore)            5000 MiB
 Core memory needed for (P|Q) and Cholesky 7 MiB
 Core memory used for integrals            245 MiB
  
 ****************************************
 Memory allocated for RIDFT 251 MiB
 ****************************************
                                            
  MOs are in ASCII format !


 reading orbital data $scfmo  from file mos
 orbital characterization : scfconv=7
 preparing numerical integration ....
          Overall gridpoints after grid construction =        122159

 Calculating ground state density on molecular grid

 Integral of ground state density: N =   162.0000462538225    



 number of non-frozen orbitals          :   272
 number of non-frozen occupied orbitals :    81



                        -------------------
                         excitation vector 
                        -------------------


 dimension of super-tensorspace: 2

          IRREP   tensor space dimension   number of roots

           a             15471                   3

 maximum number of Davidson iterations set to   25


 machine precision: 2.22D-16


 logfile sing_a    exists already

 found      3 converged vectors on sing_a   
 read       3 vectors from logfile sing_a   



                       Nonorthonormal Krylov Space Iteration


 total number of roots to be determined:   3


 maximum core memory set to   500 MB,
 corresponding to      379 vectors in CAO basis


 maximum number of simultaneously treated vectors (including degeneracy):        3


 Iteration IRREP Converged      Max. Euclidean
                 roots          residual norm

    1       a        0        1.893706695250346D-04
 
    2       a        0        1.613414711413451D-05
 
    3       a        2        1.022878154447922D-05
 
    4       a        3        4.013534515257000D-06
 

 converged!


 Switching to fine grid

 preparing numerical integration ....
          Overall gridpoints after grid construction =        372296

 Calculating ground state density on molecular grid

 Integral of ground state density: N =   162.0000032457746    



 Iteration IRREP Converged      Max. Euclidean
                 roots          residual norm

    5       a        3        9.581441524028795D-06
 

 converged!

 Eigenpairs written on logfile sing_a   



 IRREP   Vector     Eigenvalue           Euclidean residual norm

  a         1    9.786509416678367D-02    9.581441524028795D-06
            2    1.119449329826864D-01    3.600037431051026D-06
            3    1.279017885641309D-01    6.584754118893610D-06
 




                    Selection rules for point group c1  


 Subduction with respect to c1  :

    Polar vector representation: a                           

    Axial vector representation: a                           

    Symmetric second rank tensor representation: a                           




                            Ground state


 Total energy:                           -4011.732496639000    

 Charge:

               elec          nuc         total

          -162.000000   161.000000    -1.000000


 Electric dipole moment:

               elec          nuc         total   

    x      832.670319  -827.295667     5.374653    Norm:              7.232968
    y     -482.728561   477.888220    -4.840341
    z       -0.046690     0.051895     0.005205    Norm / debye:     18.384509


 Electric quadrupole moment:

               elec          nuc         total   

   xx   -12048.129525 11858.465409  -189.664116
   yy    -2516.234382  2394.842097  -121.392285    1/3*trace:      -134.618716
   zz      -98.500319     5.700573   -92.799747
   xy     2539.850924 -2516.707998    23.142926
   xz        4.970785    -4.946442     0.024342    Anisotropy:       95.065416
   yz        2.771652    -2.729263     0.042390



 ==============================================================================

                              I R R E P   a   

 ==============================================================================


 Excitation is electric dipole allowed

 Excitation is magnetic dipole allowed

 Excitation is electric quadrupole allowed




                         1 singlet a excitation


 Total energy:                           -4011.634631544833    

 Excitation energy:                      0.9786509416678367E-01

 Excitation energy / eV:                  2.663045848586707    

 Excitation energy / nm:                  465.5730732997611    

 Excitation energy / cm^(-1):             21478.90540067557    


 Oscillator strength:

    velocity representation:             0.5962514921972772    

    length representation:               0.6749065717390138    

    mixed representation:                0.6343601410759251    


 Rotatory strength:

    velocity representation:             0.5900360631668124E-07

    velocity rep. / 10^(-40)erg*cm^3:    0.3811917153395844E-02

    length representation:               0.2753896903811521E-07

    length rep. / 10^(-40)erg*cm^3:      0.1779150038724836E-02


 Dominant contributions:

      occ. orbital   energy / eV   virt. orbital     energy / eV   |coeff.|^2*100
       81 a              -2.15          82 a               0.59       94.0
 

 Change of electron number:

             0.000000


 Electric transition dipole moment (velocity rep.):

    x        3.001226        Norm:                  3.023058
    y       -0.362654
    z       -0.000829        Norm / debye:          7.683905


 Electric transition dipole moment (length rep.):

    x        3.192363        Norm:                  3.216278
    y       -0.391487
    z       -0.000865        Norm / debye:          8.175024


 Magnetic transition dipole moment / i:

    x       -0.000001        Norm:                  0.002727
    y       -0.000002
    z       -0.002727        Norm / Bohr mag.:      0.747528


 Electric quadrupole transition moment:

   xx      -25.944356
   yy       -2.702791        1/3*trace:            -9.507190
   zz        0.125577
   xy       12.063843
   xz       -0.000545        Anisotropy:           32.411644
   yz       -0.001577




                         2 singlet a excitation


 Total energy:                           -4011.620551706018    

 Excitation energy:                      0.1119449329826864    

 Excitation energy / eV:                  3.046177920615979    

 Excitation energy / nm:                  407.0157661092791    

 Excitation energy / cm^(-1):             24569.07282511134    


 Oscillator strength:

    velocity representation:             0.1556859825917221E-04

    length representation:               0.9023639767169997E-07

    mixed representation:                0.1162547989912164E-05


 Rotatory strength:

    velocity representation:            -0.3098583892026652E-06

    velocity rep. / 10^(-40)erg*cm^3:   -0.2001834434637454E-01

    length representation:              -0.3311471998561372E-06

    length rep. / 10^(-40)erg*cm^3:     -0.2139370405014952E-01


 Dominant contributions:

      occ. orbital   energy / eV   virt. orbital     energy / eV   |coeff.|^2*100
       80 a              -3.46          82 a               0.59       96.7
 

 Change of electron number:

             0.000000


 Electric transition dipole moment (velocity rep.):

    x        0.000217        Norm:                  0.014443
    y        0.000003
    z        0.014442        Norm / debye:          0.036712


 Electric transition dipole moment (length rep.):

    x        0.000228        Norm:                  0.001100
    y       -0.000035
    z        0.001075        Norm / debye:          0.002795


 Magnetic transition dipole moment / i:

    x       -0.001324        Norm:                  0.001549
    y        0.000804
    z       -0.000002        Norm / Bohr mag.:      0.424628


 Electric quadrupole transition moment:

   xx       -0.001946
   yy       -0.000782        1/3*trace:            -0.000717
   zz        0.000577
   xy        0.000553
   xz       -0.068717        Anisotropy:            0.184808
   yz       -0.081614




                         3 singlet a excitation


 Total energy:                           -4011.604594850436    

 Excitation energy:                      0.1279017885641309    

 Excitation energy / eV:                  3.480386239470142    

 Excitation energy / nm:                  356.2370250761129    

 Excitation energy / cm^(-1):             28071.19781098212    


 Oscillator strength:

    velocity representation:             0.1955912607630288    

    length representation:               0.2209112689471737    

    mixed representation:                0.2078502237918111    


 Rotatory strength:

    velocity representation:             0.2292796745246957E-06

    velocity rep. / 10^(-40)erg*cm^3:    0.1481257127835272E-01

    length representation:               0.1606913545887942E-06

    length rep. / 10^(-40)erg*cm^3:      0.1038143546128067E-01


 Dominant contributions:

      occ. orbital   energy / eV   virt. orbital     energy / eV   |coeff.|^2*100
       79 a              -3.61          82 a               0.59       95.0
 

 Change of electron number:

            -0.000000


 Electric transition dipole moment (velocity rep.):

    x       -1.493361        Norm:                  1.514545
    y        0.252424
    z        0.000188        Norm / debye:          3.849617


 Electric transition dipole moment (length rep.):

    x       -1.583645        Norm:                  1.609594
    y        0.287857
    z        0.000137        Norm / debye:          4.091210


 Magnetic transition dipole moment / i:

    x       -0.000001        Norm:                  0.000177
    y       -0.000004
    z        0.000177        Norm / Bohr mag.:      0.048402


 Electric quadrupole transition moment:

   xx       12.748568
   yy        2.090984        1/3*trace:             4.978255
   zz        0.095214
   xy       -4.840344
   xz       -0.002947        Anisotropy:           14.461125
   yz       -0.001244
 

 Excited state no.    1 chosen for optimization


                       ----------------------
                        CPKS right-hand side 
                       ----------------------


          IRREP   tensor space dimension   number of roots

           a             15471                   1

                          ----------------
                           CPKS equations 
                          ----------------


 logfile dipl_a    will be constructed

 Switching to coarse grid

 preparing numerical integration ....
          Overall gridpoints after grid construction =        122159


                       Nonorthonormal Krylov Space Iteration


 total number of roots to be determined:   1


 maximum core memory set to   500 MB,
 corresponding to      754 vectors in CAO basis


 maximum number of simultaneously treated vectors (including degeneracy):        1


 Iteration IRREP Converged      Max. Euclidean
                 roots          residual norm

    1       a        0        9.030818406458145D-02
 
    2       a        0        4.410036570599660D-02
 
    3       a        0        1.699504492163069D-02
 
    4       a        0        6.559142474777616D-03
 
    5       a        0        2.657988564133643D-03
 
    6       a        0        7.792841821625640D-04
 
    7       a        0        3.043787449884954D-04
 
    8       a        0        1.102887226327829D-04
 
    9       a        0        4.549223490797059D-05
 
   10       a        0        1.288073433485178D-05
 
   11       a        1        5.247836265694884D-06
 

 converged!


 Switching to fine grid

 preparing numerical integration ....
          Overall gridpoints after grid construction =        372296

 Iteration IRREP Converged      Max. Euclidean
                 roots          residual norm

   12       a        0        8.193312326114480D-02
 

 NOTE: Residual norms are larger than 1.00D-05 due to mgrid option!

 Eigenpairs written on logfile dipl_a   



 IRREP   Vector     Frequency            Euclidean residual norm

  a         1    0.000000000000000D+00    8.193312326114480D-02
 

                          -------------------
                           relaxed densities 
                          -------------------


    ----------------------------------------
     S+T+V CONTRIBUTIONS TO ENERGY GRADIENT 
    ----------------------------------------

 1e-integral 1st. derivatives will be neglected if expon. factor < 0.100000E-10


    -----------------------------------------------
     TWO ELECTRON CONTRIBUTIONS TO ENERGY GRADIENT 
    -----------------------------------------------

 setting up bound for integral derivative estimation

 increment for numerical differentiation : 0.00050000

 biggest AO integral is expected to be    21.668154127
 biggest cartesian 1st derivative AO integral is expected to be    83.347447328

 biggest 1-particle AO density matrix element is expected to be    3.2086074136

 core memory to be involved in 2e-gradient :
   symmetry shell pair data              :         1
   two particle density+dens. estimates  :      8556
   derivative integrals                  :      8498
   derivative integral bound             :     21780
   totally                               :     30276


 setting up bound for integral derivative estimation

 increment for numerical differentiation : 0.00050000

 biggest AO integral is expected to be    21.668154127
 biggest cartesian 1st derivative AO integral is expected to be    83.347447328

 2e-integral 1st. derivatives will be neglected if expon. factor < 0.100000E-06
 outer boundary for 2e-integral derivative neglection is 0.161888E-08

 Integrated ground state density     :   162.0000032457751    


          ------------------------------------------------
           cartesian gradient of the energy (hartree/bohr)
          ------------------------------------------------

  ATOM      1 o           2 c           3 c           4 c           5 c 
dE/dx  0.1670622D-02  0.4929781D-02  0.7952091D-02 -0.1832879D-01  0.2798013D-01
dE/dy -0.9617773D-02  0.2491475D-01 -0.1553794D-01  0.2725873D-01 -0.1648348D-01
dE/dz  0.3258678D-04 -0.7942214D-04  0.4217998D-04 -0.7156642D-04  0.3056615D-04

  ATOM      6 c           7 c           8 s           9 c          10 n 
dE/dx -0.1328739D-01  0.1298348D-01 -0.1750611D-02  0.1340595D-01 -0.2182377D-01
dE/dy -0.2259503D-02 -0.1384557D-01  0.3469642D-02 -0.1403648D-02  0.1063960D-01
dE/dz  0.1383411D-04  0.3293551D-04 -0.1062394D-04 -0.7492328D-05 -0.1728318D-04

  ATOM     11 c          12 s          13 n          14 c          15 c 
dE/dx -0.9679321D-02  0.3304758D-02 -0.6907561D-02  0.1046202D-01  0.7990343D-03
dE/dy -0.2342197D-03 -0.8822109D-03 -0.5095217D-03  0.1857858D-03 -0.1381649D-02
dE/dz  0.8354282D-05  0.3475992D-05  0.8146876D-05 -0.4157164D-05  0.3859283D-05

  ATOM     16 h          17 h          18 o          19 h          20 br
dE/dx -0.5239148D-03 -0.5241435D-03 -0.1059899D-01  0.4847670D-04  0.3666476D-03
dE/dy  0.7527332D-03  0.7545836D-03 -0.4600397D-02 -0.1069431D-02  0.4736341D-04
dE/dz -0.4593043D-03  0.4551710D-03  0.1395173D-04  0.3968568D-05 -0.2753785D-05

  ATOM     21 h 
dE/dx -0.4941669D-03
dE/dy -0.1900259D-03
dE/dz  0.4450055D-05
 
 resulting FORCE  (fx,fy,fz) = (-.157D-04,0.781D-05,0.877D-06)
 resulting MOMENT (mx,my,mz) = (-.858D-05,0.362D-04,-.480D-03)


 **********************************************************************
  |maximum component of gradient| : 0.27980128E-01  (atom  5 c )       
   gradient norm                  : 0.70067253E-01
 **********************************************************************

 exx =      -0.206782 eyy =       0.033533 ezz =      -0.001542
 eyz =      -0.000119 exz =       0.000069 exy =       0.014809

   ***  cartesian gradients written onto <gradient>  ***
 
 
 
 ==============================================================================
                           electrostatic moments
 ==============================================================================

 reference point for electrostatic moments:    0.00000   0.00000   0.00000

 
              nuc           gs,e       ->  gs,tot          excit     ->  total
 ------------------------------------------------------------------------------
                          charge      
 ------------------------------------------------------------------------------
         161.000000    -162.000000      -1.000000       0.000000      -1.000000
 
 ------------------------------------------------------------------------------
                       dipole moment  
 ------------------------------------------------------------------------------
   x    -827.295667     832.670319       5.374653      -0.900004       4.474649
   y     477.888220    -482.728561      -4.840341       0.776026      -4.064315
   z       0.051895      -0.046690       0.005205      -0.001761       0.003445
 
   | dipole moment | =     6.0449 a.u. =    15.3647 debye 
 
 ------------------------------------------------------------------------------
                     quadrupole moment
 ------------------------------------------------------------------------------
  xx   11858.465409  -12048.129525    -189.664116       2.155237    -187.508879
  yy    2394.842097   -2516.234382    -121.392285       6.828073    -114.564212
  zz       5.700573     -98.500319     -92.799747       0.090348     -92.709399
  xy   -2516.707998    2539.850924      23.142926      -8.242540      14.900386
  xz      -4.946442       4.970785       0.024342       0.018117       0.042459
  yz      -2.729263       2.771652       0.042390      -0.010378       0.032012
 
     1/3  trace=    -131.594163
     anisotropy=      89.770944
 
 ==============================================================================
 


    ------------------------------------------------------------------------
         total  cpu-time :  7 minutes and 23 seconds
         total wall-time :  7 minutes and 24 seconds
    ------------------------------------------------------------------------

   ****  egrad : all done  ****


    2018-02-07 14:45:00.253 

fine, there is no data group "$actual step"
next step = relax

OPTIMIZATION CYCLE 1
Wed Feb  7 14:45:00 PST 2018

 statpt (nile) : TURBOMOLE V7.2 ( 21287 ) 3 Jul 2017 at 09:33:16
 Copyright (C) 2017 TURBOMOLE GmbH, Karlsruhe


    2018-02-07 14:45:01.252 



                           this is S T A T P T   


                     hessian and coordinate update for
                          stationary point search 

                     by barbara unterreiner, marek sierka,
                           and reinhart ahlrichs

                          quantum chemistry group
                          universitaet  karlsruhe
                                  germany




              +--------------------------------------------------+
              | Atomic coordinate, charge and isotop information |
              +--------------------------------------------------+

                    atomic coordinates            atom    charge  isotop
        -12.83202740    6.71970485   -0.00604271    o      8.000     0
        -10.80650799    5.57110381   -0.00385515    c      6.000     0
         -8.36198721    6.81363152   -0.00915063    c      6.000     0
         -6.14906506    5.45490310   -0.00654863    c      6.000     0
         -6.11526911    2.73212826    0.00161957    c      6.000     0
         -8.46333803    1.42389389    0.00716915    c      6.000     0
        -10.66123886    2.77371688    0.00448341    c      6.000     0
         -3.03107753    6.52192531   -0.01174381    s     16.000     0
         -2.00473443    3.33820867   -0.00282513    c      6.000     0
         -3.83381402    1.65017033    0.00341566    n      7.000     0
          0.60052907    2.71927302   -0.00256824    c      6.000     0
          1.41322631   -0.55092500    0.00674250    s     16.000     0
          2.43485920    4.36549966   -0.00863774    n      7.000     0
          4.78948512    3.27701439   -0.00695775    c      6.000     0
          4.69307878    0.35189760    0.00191174    c      6.000     0
          5.68509880   -0.36193176    1.68997508    h      1.000     0
          5.68292038   -0.37208823   -1.68310260    h      1.000     0
          6.78945729    4.38647329   -0.01166079    o      8.000     0
         -8.39328850    8.87904963   -0.01529397    h      1.000     0
        -13.79775144    1.06154888    0.01157913    br    35.000     0
         -8.45594638   -0.64076719    0.01358020    h      1.000     0
 
       center of nuclear mass  :   -5.44332432    2.92404795    0.00064864
       center of nuclear charge:   -5.13848240    2.96824981    0.00032233
  Keyword $statpt not found - using default options
 
        ***************  Stationary point options ******************
        ************************************************************
           Maximum allowed trust radius:           3.000000E-01
           Minimum allowed trust radius:           1.000000E-03
           Initial trust radius:                   1.500000E-01
           GDIIS used if gradient norm <           1.000000E-02
           Number of previous steps for GDIIS:       5
           Hessian update method:                  BFGS
                        *** Convergence criteria ***                
           Threshold for energy change:            1.000000E-06
           Threshold for max displacement element: 1.000000E-03
           Threshold for max gradient element :    1.000000E-03
           Threshold for RMS of displacement:      5.000000E-04
           Threshold for RMS of gradient:          5.000000E-04
        ************************************************************
 

 keyword $statp missing in file <control>

  Keyword $statpt not found - using default options
  actual coordinates :
       -12.832027404659         6.719704848763        -0.006042705603
       -10.806507987279         5.571103814478        -0.003855150161
        -8.361987213039         6.813631520927        -0.009150633022
        -6.149065063815         5.454903100547        -0.006548627078
        -6.115269107924         2.732128259353         0.001619566594
        -8.463338028947         1.423893889227         0.007169153579
       -10.661238864479         2.773716882620         0.004483408524
        -3.031077532840         6.521925309824        -0.011743811840
        -2.004734429820         3.338208670722        -0.002825134345
        -3.833814021006         1.650170328645         0.003415664994
         0.600529066112         2.719273024852        -0.002568235291
         1.413226314065        -0.550925002990         0.006742503935
         2.434859204576         4.365499656175        -0.008637738067
         4.789485123585         3.277014391836        -0.006957753186
         4.693078779217         0.351897602146         0.001911740980
         5.685098802749        -0.361931759474         1.689975083610
         5.682920380931        -0.372088228883        -1.683102602300
         6.789457285800         4.386473287728        -0.011660786839
        -8.393288503966         8.879049629856        -0.015293966965
       -13.797751436371         1.061548875809         0.011579134949
        -8.455946383665        -0.640767185491         0.013580199469
  actual gradients :
         0.001670622363        -0.009617772975         0.000032586781
         0.004929780520         0.024914746418        -0.000079422140
         0.007952091345        -0.015537936369         0.000042179977
        -0.018328786191         0.027258733173        -0.000071566422
         0.027980127966        -0.016483480169         0.000030566147
        -0.013287389330        -0.002259503266         0.000013834105
         0.012983484699        -0.013845574490         0.000032935506
        -0.001750610742         0.003469641771        -0.000010623944
         0.013405945882        -0.001403648032        -0.000007492328
        -0.021823770552         0.010639595628        -0.000017283176
        -0.009679320506        -0.000234219672         0.000008354282
         0.003304758099        -0.000882210908         0.000003475992
        -0.006907560779        -0.000509521664         0.000008146876
         0.010462021380         0.000185785766        -0.000004157164
         0.000799034328        -0.001381648848         0.000003859283
        -0.000523914836         0.000752733211        -0.000459304256
        -0.000524143494         0.000754583644         0.000455170994
        -0.010598994067        -0.004600397491         0.000013951734
         0.000048476697        -0.001069431145         0.000003968568
         0.000366647553         0.000047363412        -0.000002753785
        -0.000494166932        -0.000190025922         0.000004450055
     Number of symmetry restricted degrees of freedom:    63
     Constituted by:     3 translational degrees of freedom
                         3 rotational degrees of freedom
                      57 internal degrees of freedom

  *************************************************************************
   ATOM                      CARTESIAN COORDINATES
    1 o     -12.83202740465862      6.71970484876321     -0.00604270560291
    2 c     -10.80650798727938      5.57110381447790     -0.00385515016067
    3 c      -8.36198721303912      6.81363152092675     -0.00915063302213
    4 c      -6.14906506381547      5.45490310054745     -0.00654862707846
    5 c      -6.11526910792430      2.73212825935289      0.00161956659362
    6 c      -8.46333802894654      1.42389388922739      0.00716915357875
    7 c     -10.66123886447891      2.77371688261961      0.00448340852373
    8 s      -3.03107753284000      6.52192530982427     -0.01174381183957
    9 c      -2.00473442981972      3.33820867072170     -0.00282513434466
   10 n      -3.83381402100630      1.65017032864506      0.00341566499428
   11 c       0.60052906611173      2.71927302485167     -0.00256823529123
   12 s       1.41322631406529     -0.55092500298979      0.00674250393460
   13 n       2.43485920457642      4.36549965617530     -0.00863773806743
   14 c       4.78948512358530      3.27701439183559     -0.00695775318597
   15 c       4.69307877921703      0.35189760214647      0.00191174097957
   16 h       5.68509880274931     -0.36193175947410      1.68997508360961
   17 h       5.68292038093147     -0.37208822888283     -1.68310260229989
   18 o       6.78945728579956      4.38647328772838     -0.01166078683936
   19 h      -8.39328850396570      8.87904962985566     -0.01529396696507
   20 br    -13.79775143637138      1.06154887580883      0.01157913494903
   21 h      -8.45594638366518     -0.64076718549107      0.01358019946930
  *************************************************************************
   ATOM                      CARTESIAN GRADIENTS  
    1 o       0.00167062236349     -0.00961777297457      0.00003258678083
    2 c       0.00492978052006      0.02491474641814     -0.00007942213984
    3 c       0.00795209134504     -0.01553793636918      0.00004217997730
    4 c      -0.01832878619121      0.02725873317341     -0.00007156642247
    5 c       0.02798012796617     -0.01648348016929      0.00003056614653
    6 c      -0.01328738932997     -0.00225950326648      0.00001383410547
    7 c       0.01298348469929     -0.01384557449038      0.00003293550643
    8 s      -0.00175061074164      0.00346964177116     -0.00001062394392
    9 c       0.01340594588164     -0.00140364803243     -0.00000749232794
   10 n      -0.02182377055202      0.01063959562843     -0.00001728317614
   11 c      -0.00967932050623     -0.00023421967244      0.00000835428242
   12 s       0.00330475809863     -0.00088221090803      0.00000347599169
   13 n      -0.00690756077889     -0.00050952166423      0.00000814687619
   14 c       0.01046202137961      0.00018578576646     -0.00000415716418
   15 c       0.00079903432812     -0.00138164884831      0.00000385928333
   16 h      -0.00052391483628      0.00075273321059     -0.00045930425609
   17 h      -0.00052414349373      0.00075458364408      0.00045517099376
   18 o      -0.01059899406735     -0.00460039749065      0.00001395173446
   19 h       0.00004847669656     -0.00106943114488      0.00000396856760
   20 br      0.00036664755259      0.00004736341188     -0.00000275378489
   21 h      -0.00049416693198     -0.00019002592212      0.00000445005472
  *************************************************************************

  norm of actual CARTESIAN gradient:  7.00673E-02
  norm of actual INTERNAL  gradient:  5.47510E-02

  ENERGY =   -4011.6346315448 a.u.; # of cycle =    1

  Approximate Hessian read from $hessapprox data section
  Number of zero Hessian eigenvalues:   0
  Final step radius: 1.04637E-01

  Transforming internal coordinate displacements to Cartesian space
      Iteration   1 residual norm     1.046368E-01
      Iteration   2 residual norm     4.971438E-03
      Iteration   3 residual norm     6.302913E-07
      Iteration   4 residual norm     2.268507E-13
      Transformation converged
      Residual norm:    2.268507E-13 after    4 iterations

      ****************************************************************** 
                          CONVERGENCE INFORMATION

                               Converged?     Value      Criterion
             Energy change         no    4011.6346315   0.0000010
             RMS of displacement   no       0.0138595   0.0005000
             RMS of gradient       no       0.0072519   0.0005000
             MAX displacement      no       0.0455953   0.0010000
             MAX gradient          no       0.0306112   0.0010000
      ****************************************************************** 


    ------------------------------------------------------------------------
         total  cpu-time :   0.04 seconds
         total wall-time :   1.43 seconds
    ------------------------------------------------------------------------

   ****  statpt : all done  ****


    2018-02-07 14:45:02.474 

fine, there is no data group "$actual step"
next step = ridft
 operating system is UNIX !

 ridft (nile) : TURBOMOLE V7.2 ( 21285 ) 30 Jun 2017 at 11:51:10
 Copyright (C) 2017 TURBOMOLE GmbH, Karlsruhe


    2018-02-07 14:45:02.499 



                                  r i d f t

                        DFT program with RI approximation 
                                for coulomb part 




                                                 
                                 References:     
                                                 
          TURBOMOLE:                             
              R. Ahlrichs, M. Baer, M. Haeser, H. Horn, and
              C. Koelmel
              Electronic structure calculations on workstation
              computers: the program system TURBOMOLE
              Chem. Phys. Lett. 162: 165 (1989)
          Density Functional:                              
              O. Treutler and R. Ahlrichs                      
              Efficient Molecular Numerical Integration Schemes
              J. Chem. Phys. 102: 346 (1995)                   
          Parallel Version:                                
              Performance of parallel TURBOMOLE for Density    
              Functional Calculations                          
              M. v. Arnim and R. Ahlrichs                      
              J. Comp. Chem. 19: 1746 (1998)                   
          RI-J Method:                                     
              Auxiliary Basis Sets to approximate Coulomb      
              Potentials                                       
              Chem. Phys. Lett. 240: 283 (1995)                
              K. Eichkorn, O. Treutler, H. Oehm, M. Haeser     
              and R. Ahlrichs                                  
              Chem. Phys. Lett. 242: 652 (1995)                
                                                           
              Auxiliary Basis Sets for Main Row Atoms and their
              Use to approximate Coulomb Potentials            
              K. Eichkorn, F. Weigend, O. Treutler and         
              R. Ahlrichs                                      
              Theo. Chem. Acc. 97: 119 (1997)                   
                                                           
              Accurate Coulomb-fitting basis sets for H to Rn 
              F. Weigend                                        
              Phys. Chem. Chem. Phys. 8: 1057 (2006)            
                                                           
          Multipole accelerated RI-J (MARI-J):             
              Fast evaluation of the Coulomb potential for     
              electron densities using multipole accelerated   
              resolution of identity approximation             
              M. Sierka, A. Hogekamp and R. Ahlrichs           
              J. Chem. Phys. 118: 9136 (2003)                  
          RI-JK Method:                                     
              A fully direct RI-HF algorithm: Implementation,
              optimised auxiliary basis sets, demonstration of
              accuracy and efficiency                         
              F. Weigend                                      
              Phys. Chem. Chem. Phys. 4: 4285 (2002)           
          Two-component HF and DFT with spin-orbit coupling:  
              Self-consistent treatment of spin-orbit         
              interactions with efficient Hartree-Fock and    
              density functional methods                      
              M. K. Armbruster, F. Weigend, C. van Wüllen and 
              W. Klopper                                      
              Phys. Chem. Chem. Phys. 10: 1748 (2008)         
          Relativistic all-electron 2c calculations           
              An efficient implementation of two-component    
              relativistic exact-decoupling methods for large 
              molecules                                       
              D. Peng, N. Middendorf, F. Weigend, M. Reiher   
              J. Chem. Phys. 138, 184105 (2013)               
                                         




              +--------------------------------------------------+
              |      general information about current run       |
              +--------------------------------------------------+

 

 DENSITY CONVERGENCE CHECK SWITCHED ON !
 SCF CONVERGENCE IF RMS(delta[D]) <     0.1000000000E-06

 PBE0 hybrid functional
 exchange:    3/4 (LDA+PBE) + 1/4 HF
 correlation: LDA (PW) + PBE
 A Hybrid-DFT calculation using the RI-J approximation will be carried out.
 Allocatable memory for RI due to $ricore (MB):                  5000


              +--------------------------------------------------+
              | Atomic coordinate, charge and isotop information |
              +--------------------------------------------------+

                    atomic coordinates            atom    charge  isotop
        -12.79410101    6.84937632    0.00373982    o      8.000     0
        -10.82098950    5.59877002    0.00076131    c      6.000     0
         -8.32846400    6.77444833    0.00028870    c      6.000     0
         -6.13917464    5.32706328   -0.00485963    c      6.000     0
         -6.16115737    2.63020152    0.00660305    c      6.000     0
         -8.55701616    1.41760625    0.00330249    c      6.000     0
        -10.74767080    2.82525494   -0.00235684    c      6.000     0
         -3.03739034    6.40899373   -0.03036941    s     16.000     0
         -2.00995034    3.24590233   -0.00510482    c      6.000     0
         -3.83446429    1.53726565    0.00644889    n      7.000     0
          0.62806636    2.67444411    0.00469708    c      6.000     0
          1.49212261   -0.56698355    0.03565451    s     16.000     0
          2.43289443    4.37161157   -0.01208807    n      7.000     0
          4.80822658    3.34109227   -0.01860122    c      6.000     0
          4.76042164    0.40856339    0.00958198    c      6.000     0
          5.76779955   -0.28345273    1.70561654    h      1.000     0
          5.75042880   -0.31565184   -1.68321777    h      1.000     0
          6.79945446    4.48789488   -0.04379960    o      8.000     0
         -8.29071081    8.84419328    0.01017834    h      1.000     0
        -13.92710989    1.18637513   -0.01692041    br    35.000     0
         -8.60860630   -0.64853796    0.00253434    h      1.000     0
 
       center of nuclear mass  :   -5.46844207    2.94105594   -0.00589738
       center of nuclear charge:   -5.15980515    2.98206355   -0.00538274

              +--------------------------------------------------+
              |               basis set information              |
              +--------------------------------------------------+

              we will work with the 1s 3p 5d 7f 9g ... basis set
              ...i.e. with spherical basis functions...

   type   atoms  prim   cont   basis
   ---------------------------------------------------------------------------
    o        2     24     14   def2-SV(P)   [3s2p1d|7s4p1d]
    c       10     24     14   def2-SV(P)   [3s2p1d|7s4p1d]
    s        2     36     18   def2-SV(P)   [4s3p1d|10s7p1d]
    n        2     24     14   def2-SV(P)   [3s2p1d|7s4p1d]
    h        4      4      2   def2-SV(P)   [2s|4s]
    br       1     74     32   def2-SV(P)   [5s4p3d|14s10p6d]
   ---------------------------------------------------------------------------
   total:   21    498    272
   ---------------------------------------------------------------------------

   total number of primitive shells          :   88
   total number of contracted shells         :  120
   total number of cartesian basis functions :  291
   total number of SCF-basis functions       :  272


 integral neglect threshold       :  0.11E-10
 integral storage threshold THIZE :  0.10E-04
 integral storage threshold THIME :         5

 RI-J AUXILIARY BASIS SET information:

              we will work with the 1s 3p 5d 7f 9g ... basis set
              ...i.e. with spherical basis functions...

   type   atoms  prim   cont   basis
   ---------------------------------------------------------------------------
    o        2     70     49   def2-SV(P)   [6s4p3d1f1g|12s5p4d2f1g]
    c       10     70     49   def2-SV(P)   [6s4p3d1f1g|12s5p4d2f1g]
    s        2     77     51   def2-SV(P)   [8s4p3d1f1g|14s5p5d2f1g]
    n        2     70     49   def2-SV(P)   [6s4p3d1f1g|12s5p4d2f1g]
    h        4     16     11   def2-SV(P)   [3s1p1d|5s2p1d]
    br       1     89     58   def2-SV(P)   [8s4p3d2f1g|19s5p5d3f1g]
   ---------------------------------------------------------------------------
   total:   21   1287    890
   ---------------------------------------------------------------------------

   total number of primitive shells          :  140
   total number of contracted shells         :  282
   total number of cartesian basis functions : 1101
   total number of SCF-basis functions       :  890


 symmetry group of the molecule :   c1 

 the group has the following generators :
   c1(z)

    1 symmetry operations found

 there are 1 real representations :   a   

 maximum number of shells which are related by symmetry :  1


    mo occupation :
   irrep   mo's   occupied
    a      272       81
 
 number of basis functions   :                    272
 number of occupied orbitals :                     81
 
  
           ------------------
           density functional
           ------------------
 PBE0 hybrid functional
 exchange:    3/4 (LDA+PBE) + 1/4 HF
 correlation: LDA (PW) + PBE

 iterations will be done with small grid
  
 spherical integration : Lebedev's spherical grid
 spherical gridsize    :                     5
    i.e. gridpoints    :                   590
 value for diffuse not defined
 radial integration    : Chebyshev 2nd kind (scaling 3)
 radial gridsize       :                     8
 integration cells     :                    21
 partition function    : becke
 partition sharpness   :                     3
  

 biggest AO integral is expected to be    21.668154127
  
           ------------------------
               RI-J - INFORMATION
           ------------------------
 Contributions to RI integral batches: 
  neglected integral batches:                  2343
  direct contribution:                            0
  memory contribution:                  4917
 Memory core needed for (P|Q) and Cholesky      7 MByte
 Memory core minimum needed except of (P|Q)     1 MByte
 Total minimum memory core needed (sum)         7 MByte
  
 ****************************************
 Memory allocated for RI-J   243 MByte
 ****************************************
                                            

          ------------------------
          nuclear repulsion energy  :   1647.26013672    
          ------------------------


         -----------------
         -S,T+V- integrals
         -----------------

 1e-integrals will be neglected if expon. factor < 0.114844E-11
 
   Difference densities algorithm switched on.
   The maximal number of linear combinations of
   difference densities is                    20 .

 DIIS switched on: error vector is FDS-SDF
 Max. Iterations for DIIS is     :   4
 DIIS matrix (see manual) 
    Scaling factor of diagonals  :  1.200
    threshold for scaling factor :  0.000

 scf convergence criterion : increment of total energy < .1000000D-06
                  and increment of one-electron energy < .1000000D-03

  MOs are in ASCII format !


 automatic virtual orbital shift switched on 
      shift if e(lumo)-e(homo) < 0.10000000    


 reading orbital data $scfmo  from file mos
 orbital characterization : scfconv=7

 DSCF restart information will be dumped onto file mos


 Starting SCF iterations

          Overall gridpoints after grid construction =        122181

 ITERATION  ENERGY          1e-ENERGY        2e-ENERGY     RMS[dD(SAO)]   TOL
   1  -4011.7255501772    -8855.0306120     3196.0449251    0.000D+00 0.115D-10
                            Exc = -172.720181063     Coul =  3424.42209351    
                            exK = -55.6569873591    
                              N = 162.00002960    
                            current damping = 0.700
 
          max. resid. norm for Fia-block=  3.580D-02 for orbital      1a         
          max. resid. fock norm         =  5.891D-02 for orbital    209a         

 ITERATION  ENERGY          1e-ENERGY        2e-ENERGY     RMS[dD(SAO)]   TOL
   2  -4011.7292881601    -8854.9760674     3195.9866425    0.540D-03 0.726D-11
                            Exc = -172.713896488      Eck =  3368.70053902    
                              N = 162.00002978    
                            current damping = 0.650
 
          Norm of current diis error: 0.72979E-01
          max. resid. norm for Fia-block=  1.473D-02 for orbital      1a         
          max. resid. fock norm         =  2.464D-02 for orbital    209a         

 ITERATION  ENERGY          1e-ENERGY        2e-ENERGY     RMS[dD(SAO)]   TOL
   3  -4011.7300737769    -8854.9714920     3195.9812815    0.280D-03 0.555D-11
                            Exc = -172.715688084      Eck =  3368.69696956    
                              N = 162.00002983    
                            current damping = 0.500
 
          Norm of current diis error: 0.34188E-01
          max. resid. norm for Fia-block=  5.799D-03 for orbital      1a         
          max. resid. fock norm         =  9.851D-03 for orbital    209a         

 ITERATION  ENERGY          1e-ENERGY        2e-ENERGY     RMS[dD(SAO)]   TOL
   4  -4011.7302038057    -8854.9849889     3195.9946484    0.187D-03 0.516D-11
                            Exc = -172.715114505      Eck =  3368.70976290    
                              N = 162.00002971    
                            current damping = 0.550
 
          Norm of current diis error: 0.23198E-01
          max. resid. norm for Fia-block=  1.933D-03 for orbital      1a         
          max. resid. fock norm         =  3.484D-03 for orbital    209a         

 ITERATION  ENERGY          1e-ENERGY        2e-ENERGY     RMS[dD(SAO)]   TOL
   5  -4011.7302899589    -8854.9860045     3195.9955779    0.103D-03 0.490D-11
                            Exc = -172.714321275      Eck =  3368.70989913    
                              N = 162.00002980    
                            current damping = 0.400
 
          Norm of current diis error: 0.65521E-02
          max. resid. norm for Fia-block=  6.859D-04 for orbital      1a         
          max. resid. fock norm         =  1.262D-03 for orbital    209a         
          mo-orthogonalization: Cholesky decomposition

 ITERATION  ENERGY          1e-ENERGY        2e-ENERGY     RMS[dD(SAO)]   TOL
   6  -4011.7302955890    -8854.9688422     3195.9784099    0.409D-04 0.482D-11
                            Exc = -172.715087201      Eck =  3368.69349707    
                              N = 162.00002977    
                            current damping = 0.450
 
          Norm of current diis error: 0.45307E-02
          max. resid. norm for Fia-block=  1.960D-04 for orbital      1a         
          max. resid. fock norm         =  3.979D-04 for orbital    254a         

 ITERATION  ENERGY          1e-ENERGY        2e-ENERGY     RMS[dD(SAO)]   TOL
   7  -4011.7302987270    -8854.9759262     3195.9854907    0.173D-04 0.473D-11
                            Exc = -172.714766164      Eck =  3368.70025691    
                              N = 162.00002978    
                            current damping = 0.500
 
          Norm of current diis error: 0.10779E-02
          max. resid. norm for Fia-block=  8.340D-05 for orbital     81a         
          max. resid. fock norm         =  1.444D-04 for orbital    209a         

 ITERATION  ENERGY          1e-ENERGY        2e-ENERGY     RMS[dD(SAO)]   TOL
   8  -4011.7302988287    -8854.9777377     3195.9873021    0.568D-05 0.469D-11
                            Exc = -172.714793305      Eck =  3368.70209543    
                              N = 162.00002978    
                            current damping = 0.350
 
          Norm of current diis error: 0.76805E-03
          max. resid. norm for Fia-block=  4.131D-05 for orbital     81a         
          max. resid. fock norm         =  9.035D-05 for orbital    251a         

 ITERATION  ENERGY          1e-ENERGY        2e-ENERGY     RMS[dD(SAO)]   TOL
   9  -4011.7302989026    -8854.9769192     3195.9864835    0.385D-05 0.462D-11
                            Exc = -172.714746270      Eck =  3368.70122981    
                              N = 162.00002978    
                            current damping = 0.400
 
          Norm of current diis error: 0.37692E-03
          max. resid. norm for Fia-block=  2.179D-05 for orbital     81a         
          max. resid. fock norm         =  3.658D-05 for orbital    222a         

 ITERATION  ENERGY          1e-ENERGY        2e-ENERGY     RMS[dD(SAO)]   TOL
  10  -4011.7302989242    -8854.9770832     3195.9866475    0.171D-05 0.455D-11
                            Exc = -172.714749262      Eck =  3368.70139679    
                              N = 162.00002978    
                            current damping = 0.450
 
          Norm of current diis error: 0.10774E-03
          max. resid. norm for Fia-block=  6.180D-06 for orbital     79a         
          max. resid. fock norm         =  1.477D-05 for orbital    241a         
          mo-orthogonalization: Cholesky decomposition

 ITERATION  ENERGY          1e-ENERGY        2e-ENERGY     RMS[dD(SAO)]   TOL
  11  -4011.7302989263    -8854.9772170     3195.9867813    0.541D-06 0.449D-11
                            Exc = -172.714754687      Eck =  3368.70153601    
                              N = 162.00002978    
                            current damping = 0.300
 
          Norm of current diis error: 0.44154E-04
          max. resid. norm for Fia-block=  2.763D-06 for orbital     81a         
          max. resid. fock norm         =  4.465D-06 for orbital    244a         

 ENERGY & DENSITY CONVERGED !

          Overall gridpoints after grid construction =        372358

 ITERATION  ENERGY          1e-ENERGY        2e-ENERGY     RMS[dD(SAO)]   TOL
  12  -4011.7302970168    -8854.9771571     3195.9867233    0.215D-06 0.444D-11
                            Exc = -172.714751663      Eck =  3368.70147500    
                              N = 162.00000045    
                            current damping = 0.350
 
          Norm of current diis error: 0.15872E-04
          max. resid. norm for Fia-block=  1.090D-06 for orbital     80a         
          max. resid. fock norm         =  2.169D-06 for orbital    251a         

 End of SCF iterations

   convergence criteria satisfied after   12 iterations


                  ------------------------------------------ 
                 |  total energy      =  -4011.73029701677  |
                  ------------------------------------------ 
                 :  kinetic energy    =   4002.26250541302  :
                 :  potential energy  =  -8013.99280242979  :
                 :  virial theorem    =      1.99763997305  :
                 :  wavefunction norm =      1.00000000000  :
                  .......................................... 


 orbitals $scfmo  will be written to file mos

    irrep                 77a         78a         79a         80a         81a   
 eigenvalues H         -0.17017    -0.16103    -0.13101    -0.12384    -0.07861
            eV          -4.6306     -4.3819     -3.5650     -3.3699     -2.1391
 occupation              2.0000      2.0000      2.0000      2.0000      2.0000 

    irrep                 82a         83a         84a         85a         86a   
 eigenvalues H          0.01794     0.10601     0.11782     0.13011     0.13124
            eV           0.4883      2.8848      3.2061      3.5405      3.5713
 
 
 
 
 ==============================================================================
                           electrostatic moments
 ==============================================================================

 reference point for electrostatic moments:    0.00000   0.00000   0.00000

 
              nuc           elec       ->  total
 ------------------------------------------------------------------------------
                          charge      
 ------------------------------------------------------------------------------
         161.000000    -162.000000      -1.000000
 
 ------------------------------------------------------------------------------
                       dipole moment  
 ------------------------------------------------------------------------------
   x    -830.728629     836.267158       5.538529
   y     480.112232    -485.062498      -4.950266
   z      -0.866621       0.881190       0.014569
 
   | dipole moment | =     7.4284 a.u. =    18.8810 debye 
 
 ------------------------------------------------------------------------------
                     quadrupole moment
 ------------------------------------------------------------------------------
  xx   12011.233329  -12202.145533    -190.912204
  yy    2386.459348   -2509.140323    -122.680975
  zz       5.807772     -98.669956     -92.862184
  xy   -2569.697940    2594.269259      24.571319
  xz       7.152724      -7.042388       0.110336
  yz      -6.071266       6.177053       0.105787
 
     1/3  trace=    -135.485121
     anisotropy=      96.904865
 
 ==============================================================================
 


    ------------------------------------------------------------------------
         total  cpu-time :  1 minutes and 37 seconds
         total wall-time :  1 minutes and 37 seconds
    ------------------------------------------------------------------------

   ****  ridft : all done  ****


    2018-02-07 14:46:39.024 

fine, there is no data group "$actual step"
next step = egrad

 egrad (nile) : TURBOMOLE V7.2 ( 21285 ) 30 Jun 2017 at 11:51:10
 Copyright (C) 2017 TURBOMOLE GmbH, Karlsruhe


    2018-02-07 14:46:39.046 




                               e g r a d

                             TURBOMOLE GmbH


             integral direct evaluation of excited state
                     and polarizability gradients
                 and first-order nonadiabatic couplings



          references (see also programs escf, dscf and ridft) 

          review 
          F. Furche and D. Rappoport,  
          "Density functional methods for excited states: 
          equilibrium structure and electronic spectra",
          ch. III of "Computational Photochemistry", ed. by 
          M. Olivucci, vol. 16 of "Theoretical and Computational 
          Chemistry", Elsevier, Amsterdam, 2005.

          nonorthonormal Krylov space methods 
          F. Furche, B. T. Krull, B. D. Nguyen, J. Kwon, 
          J. Chem. Phys. 144 (2016), 174105.

          RI-J method 
          D. Rappoport and F. Furche, 
          J. Chem. Phys. 122 (2005), 064105.

          Lagrangian method, implementation, benchmarks 
          F. Furche and R. Ahlrichs,
          J. Chem. Phys. 117 (2002), 7433;
          J. Chem. Phys. 121 (2004), 12772 (E).

          Polarizability derivatives, Raman intensities 
          D. Rappoport and F. Furche, 
          J. Chem. Phys. 126 (2007), 201104.

          First-order nonadiabatic couplings 
          R. Send and F. Furche, 
          J. Chem. Phys. 132 (2010), 044107.
                                     




              +--------------------------------------------------+
              | Atomic coordinate, charge and isotop information |
              +--------------------------------------------------+

                    atomic coordinates            atom    charge  isotop
        -12.79410101    6.84937632    0.00373982    o      8.000     0
        -10.82098950    5.59877002    0.00076131    c      6.000     0
         -8.32846400    6.77444833    0.00028870    c      6.000     0
         -6.13917464    5.32706328   -0.00485963    c      6.000     0
         -6.16115737    2.63020152    0.00660305    c      6.000     0
         -8.55701616    1.41760625    0.00330249    c      6.000     0
[...]
   c1(z)

    1 symmetry operations found

 there are 1 real representations :   a   

 maximum number of shells which are related by symmetry :  1

 IRREP of excited state :   a   
 

 determining totally symmetric integral contributions 
    - equivalent to irreducible tensor elements - 
 which can be formed within each triple of representations :

             representation triple      contributions

              a     a     a               1

    mo occupation :
   irrep   mo's   occupied
    a      272       81
 
 number of basis functions   :                    272
 number of occupied orbitals :                     81
 
  
           ------------------
           density functional
           ------------------
 PBE0 hybrid functional
 exchange:    3/4 (LDA+PBE) + 1/4 HF
 correlation: LDA (PW) + PBE

 iterations will be done with small grid
  
 spherical integration : Lebedev's spherical grid
 spherical gridsize    :                     5
    i.e. gridpoints    :                   590
 value for diffuse not defined
 radial integration    : Chebyshev 2nd kind (scaling 3)
 radial gridsize       :                     8
 integration cells     :                    21
 partition function    : becke
 partition sharpness   :                     3
  
  
           ----------------------
               RI - INFORMATION
           ----------------------

 biggest AO integral is expected to be    21.668154127

 Threshold for integral neglect (rithr2):   0.11E-10
 Threshold for integral neglect (rithr1):   0.11E-10

 Contributions to RI integral batches: 
  neglected integral batches:                  2187
  direct contribution:                            0
  memory contribution:                  5073
 Core memory available (ricore)            5000 MiB
 Core memory needed for (P|Q) and Cholesky 7 MiB
 Core memory used for integrals            244 MiB
  
 ****************************************
 Memory allocated for RIDFT 250 MiB
 ****************************************
                                            
  MOs are in ASCII format !


 reading orbital data $scfmo  from file mos
 orbital characterization : scfconv=7
 preparing numerical integration ....
          Overall gridpoints after grid construction =        122143

 Calculating ground state density on molecular grid

 Integral of ground state density: N =   161.9999972118016    



 number of non-frozen orbitals          :   272
 number of non-frozen occupied orbitals :    81



                        -------------------
                         excitation vector 
                        -------------------


 dimension of super-tensorspace: 2

          IRREP   tensor space dimension   number of roots

           a             15471                   3

 maximum number of Davidson iterations set to   50


 machine precision: 2.22D-16


 logfile sing_a    exists already

 found      3 converged vectors on sing_a   
 read       3 vectors from logfile sing_a   



                       Nonorthonormal Krylov Space Iteration


 total number of roots to be determined:   3


 maximum core memory set to   500 MB,
 corresponding to      379 vectors in CAO basis


 maximum number of simultaneously treated vectors (including degeneracy):        3


 Iteration IRREP Converged      Max. Euclidean
                 roots          residual norm

    1       a        0        1.744192128825054D-04
 
    2       a        0        4.230767711305472D-05
 
    3       a        1        3.073203177244004D-05
 
    4       a        2        1.103170282028709D-05
 
    5       a        3        7.959119768968206D-06
 

 converged!


 Switching to fine grid

 preparing numerical integration ....
          Overall gridpoints after grid construction =        372404

 Calculating ground state density on molecular grid

 Integral of ground state density: N =   161.9999985600177    



 Iteration IRREP Converged      Max. Euclidean
                 roots          residual norm

    6       a        2        1.010238395433385D-05
 

 NOTE: Residual norms are larger than 1.00D-05 due to mgrid option!

 Eigenpairs written on logfile sing_a   



 IRREP   Vector     Eigenvalue           Euclidean residual norm

  a         1    8.766251995698533D-02    8.796480923188028D-06
            2    1.017534209298066D-01    4.140128133666680D-06
            3    1.193642842338365D-01    1.010238395433385D-05
 




                    Selection rules for point group c1  


 Subduction with respect to c1  :

    Polar vector representation: a                           

    Axial vector representation: a                           

    Symmetric second rank tensor representation: a                           




                            Ground state


 Total energy:                           -4011.727011134000    

 Charge:

               elec          nuc         total

          -162.000000   161.000000    -1.000000


 Electric dipole moment:

               elec          nuc         total   

    x      837.538192  -831.731586     5.806605    Norm:              7.694410
    y     -484.888618   479.840128    -5.048490
    z       -0.051491     0.057326     0.005835    Norm / debye:     19.557388


 Electric quadrupole moment:

               elec          nuc         total   

   xx   -12244.151284 12052.209656  -191.941628
   yy    -2499.742561  2375.770740  -123.971822    1/3*trace:      -136.254093
   zz      -98.540040     5.691210   -92.848830
   xy     2623.080196 -2596.837089    26.243107
   xz        5.024424    -5.002918     0.021507    Anisotropy:       98.843662
   yz        2.754288    -2.705431     0.048857



 ==============================================================================

                              I R R E P   a   

 ==============================================================================


 Excitation is electric dipole allowed

 Excitation is magnetic dipole allowed

 Excitation is electric quadrupole allowed




                         1 singlet a excitation


 Total energy:                           -4011.639348614043    

 Excitation energy:                      0.8766251995698533E-01

 Excitation energy / eV:                  2.385419559810059    

 Excitation energy / nm:                  519.7586457970549    

 Excitation energy / cm^(-1):             19239.69919379074    


 Oscillator strength:

    velocity representation:             0.4340041228480488    

    length representation:               0.4929075464225798    

    mixed representation:                0.4625179261572631    


 Rotatory strength:

    velocity representation:            -0.2976166093164999E-06

    velocity rep. / 10^(-40)erg*cm^3:   -0.1922746640434311E-01

    length representation:              -0.3578427813755058E-06

    length rep. / 10^(-40)erg*cm^3:     -0.2311836719306641E-01


 Dominant contributions:

      occ. orbital   energy / eV   virt. orbital     energy / eV   |coeff.|^2*100
       81 a              -2.09          82 a               0.43       92.1
 

 Change of electron number:

            -0.000000


 Electric transition dipole moment (velocity rep.):

    x       -2.705264        Norm:                  2.725120
    y        0.328363
    z        0.000745        Norm / debye:          6.926616


 Electric transition dipole moment (length rep.):

    x       -2.882214        Norm:                  2.904166
    y        0.356399
    z        0.000771        Norm / debye:          7.381709


 Magnetic transition dipole moment / i:

    x        0.000001        Norm:                  0.001833
    y        0.000000
    z        0.001833        Norm / Bohr mag.:      0.502366


 Electric quadrupole transition moment:

   xx       23.682919
   yy        2.553799        1/3*trace:             8.703538
   zz       -0.126103
   xy      -11.120460
   xz        0.001109        Anisotropy:           29.685678
   yz        0.001249




                         2 singlet a excitation


 Total energy:                           -4011.625257713070    

 Excitation energy:                      0.1017534209298066    

 Excitation energy / eV:                  2.768852648573736    

 Excitation energy / nm:                  447.7820228907228    

 Excitation energy / cm^(-1):             22332.29448103095    


 Oscillator strength:

    velocity representation:             0.1360659407770799E-04

    length representation:               0.2277327086370615E-07

    mixed representation:                0.3747145786718388E-06


 Rotatory strength:

    velocity representation:             0.5058852131564260E-06

    velocity rep. / 10^(-40)erg*cm^3:    0.3268262131860755E-01

    length representation:               0.5231866054904276E-06

    length rep. / 10^(-40)erg*cm^3:      0.3380037459391822E-01


 Dominant contributions:

      occ. orbital   energy / eV   virt. orbital     energy / eV   |coeff.|^2*100
       80 a              -3.25          82 a               0.43       97.4
 

 Change of electron number:

             0.000000


 Electric transition dipole moment (velocity rep.):

    x       -0.000384        Norm:                  0.014163
    y        0.000118
    z        0.014157        Norm / debye:          0.035998


 Electric transition dipole moment (length rep.):

    x       -0.000410        Norm:                  0.000579
    y        0.000077
    z       -0.000402        Norm / debye:          0.001473


 Magnetic transition dipole moment / i:

    x       -0.001109        Norm:                  0.001414
    y        0.000878
    z       -0.000002        Norm / Bohr mag.:      0.387659


 Electric quadrupole transition moment:

   xx        0.003059
   yy        0.000192        1/3*trace:             0.001256
   zz        0.000516
   xy       -0.002103
   xz       -0.073274        Anisotropy:            0.180709
   yz       -0.074224




                         3 singlet a excitation


 Total energy:                           -4011.607646849766    

 Excitation energy:                      0.1193642842338365    

 Excitation energy / eV:                  3.248068826835410    

 Excitation energy / nm:                  381.7168004018747    

 Excitation energy / cm^(-1):             26197.43220099110    


 Oscillator strength:

    velocity representation:             0.2708427471968009    

    length representation:               0.3081744163467496    

    mixed representation:                0.2888860415367837    


 Rotatory strength:

    velocity representation:            -0.1220913041077683E-06

    velocity rep. / 10^(-40)erg*cm^3:   -0.7887686286682006E-02

    length representation:              -0.2533562217176123E-06

    length rep. / 10^(-40)erg*cm^3:     -0.1636803218944751E-01


 Dominant contributions:

      occ. orbital   energy / eV   virt. orbital     energy / eV   |coeff.|^2*100
       79 a              -3.48          82 a               0.43       92.8
 

 Change of electron number:

            -0.000000


 Electric transition dipole moment (velocity rep.):

    x        1.821075        Norm:                  1.844875
    y       -0.295381
    z       -0.000262        Norm / debye:          4.689241


 Electric transition dipole moment (length rep.):

    x        1.938670        Norm:                  1.967917
    y       -0.338018
    z       -0.000198        Norm / debye:          5.001983


 Magnetic transition dipole moment / i:

    x        0.000000        Norm:                  0.000517
    y        0.000003
    z       -0.000517        Norm / Bohr mag.:      0.141624


 Electric quadrupole transition moment:

   xx      -16.068583
   yy       -2.256824        1/3*trace:            -6.131424
   zz       -0.068866
   xy        6.354345
   xz        0.002645        Anisotropy:           18.625373
   yz        0.000547
 

 Excited state no.    1 chosen for optimization


                       ----------------------
                        CPKS right-hand side 
                       ----------------------


          IRREP   tensor space dimension   number of roots

           a             15471                   1

                          ----------------
                           CPKS equations 
                          ----------------


 logfile dipl_a    exists already

 found      1 converged vectors on dipl_a   
 read       1 vectors from logfile dipl_a   


 Switching to coarse grid

 preparing numerical integration ....
          Overall gridpoints after grid construction =        122143


                       Nonorthonormal Krylov Space Iteration


 total number of roots to be determined:   1


 maximum core memory set to   500 MB,
 corresponding to      754 vectors in CAO basis


 maximum number of simultaneously treated vectors (including degeneracy):        1


 Iteration IRREP Converged      Max. Euclidean
                 roots          residual norm

    1       a        0        1.839301656606795D-04
 
    2       a        0        4.191077829377566D-05
 
    3       a        0        1.441135369784797D-05
 
    4       a        1        5.546284561715662D-06
 

 converged!


 Switching to fine grid

 preparing numerical integration ....
          Overall gridpoints after grid construction =        372404

 Iteration IRREP Converged      Max. Euclidean
                 roots          residual norm

    5       a        0        9.786694585501857D-02
 

 NOTE: Residual norms are larger than 1.00D-05 due to mgrid option!

 Eigenpairs written on logfile dipl_a   



 IRREP   Vector     Frequency            Euclidean residual norm

  a         1    0.000000000000000D+00    9.786694585501857D-02
 

                          -------------------
                           relaxed densities 
                          -------------------


    ----------------------------------------
     S+T+V CONTRIBUTIONS TO ENERGY GRADIENT 
    ----------------------------------------

 1e-integral 1st. derivatives will be neglected if expon. factor < 0.100000E-10


    -----------------------------------------------
     TWO ELECTRON CONTRIBUTIONS TO ENERGY GRADIENT 
    -----------------------------------------------

 setting up bound for integral derivative estimation

 increment for numerical differentiation : 0.00050000

 biggest AO integral is expected to be    21.668154127
 biggest cartesian 1st derivative AO integral is expected to be    83.347447328

 biggest 1-particle AO density matrix element is expected to be    3.2085603131

 core memory to be involved in 2e-gradient :
   symmetry shell pair data              :         1
   two particle density+dens. estimates  :      8556
   derivative integrals                  :      8498
   derivative integral bound             :     21780
   totally                               :     30276


 setting up bound for integral derivative estimation

 increment for numerical differentiation : 0.00050000

 biggest AO integral is expected to be    21.668154127
 biggest cartesian 1st derivative AO integral is expected to be    83.347447328

 2e-integral 1st. derivatives will be neglected if expon. factor < 0.100000E-06
 outer boundary for 2e-integral derivative neglection is 0.161893E-08

 Integrated ground state density     :   161.9999985600165    


          ------------------------------------------------
           cartesian gradient of the energy (hartree/bohr)
          ------------------------------------------------

  ATOM      1 o           2 c           3 c           4 c           5 c 
dE/dx  0.7738412D-05 -0.4330962D-05  0.4285815D-06  0.4677663D-05  0.2111141D-05
dE/dy  0.1472615D-05  0.7963835D-05  0.4494412D-05 -0.1855393D-05  0.5020511D-05
dE/dz  0.1880755D-05  0.8044261D-06 -0.2970197D-05  0.4243551D-05  0.5044897D-06

  ATOM      6 c           7 c           8 s           9 c          10 n 
dE/dx -0.8740963D-06  0.8683238D-06 -0.1843291D-05  0.2764417D-05 -0.8845797D-05
dE/dy  0.4642657D-05  0.6894430D-05  0.1566224D-05  0.4640788D-07 -0.1225514D-05
dE/dz  0.1162202D-05 -0.1202710D-05  0.2524264D-05  0.2771018D-05 -0.1142766D-04

  ATOM     11 c          12 s          13 n          14 c          15 c 
dE/dx -0.5006015D-05 -0.4712435D-05  0.5906370D-05 -0.2579533D-05 -0.2149912D-05
dE/dy -0.1123997D-04 -0.3464662D-05  0.3503572D-05 -0.7294546D-05 -0.4526177D-05
dE/dz -0.5341844D-05 -0.4119208D-05  0.8751371D-05  0.3564565D-05  0.3041963D-05

  ATOM     16 h          17 h          18 o          19 h          20 br
dE/dx -0.5076640D-05 -0.2450382D-05  0.2083307D-05  0.3166783D-05 -0.2296783D-05
dE/dy -0.7473427D-05 -0.7954278D-05 -0.8461547D-05  0.3866000D-05  0.7758350D-05
dE/dz  0.1813538D-05 -0.1136969D-05 -0.4975745D-05 -0.8041275D-06  0.1661494D-05

  ATOM     21 h 
dE/dx -0.4672403D-05
dE/dy  0.3204307D-05
dE/dz -0.6288526D-06
 
 resulting FORCE  (fx,fy,fz) = (-.151D-04,-.306D-05,0.116D-06)
 resulting MOMENT (mx,my,mz) = (0.391D-04,-.363D-05,-.745D-03)


 **********************************************************************
  |maximum component of gradient| : 0.11427658E-04  (atom 10 n )       
   gradient norm                  : 0.37502919E-04
 **********************************************************************

 exx =      -0.000067 eyy =       0.000091 ezz =       0.000005
 eyz =       0.000020 exz =      -0.000003 exy =      -0.000280

   ***  cartesian gradients written onto <gradient>  ***
 
 
 
 ==============================================================================
                           electrostatic moments
 ==============================================================================

 reference point for electrostatic moments:    0.00000   0.00000   0.00000

 
              nuc           gs,e       ->  gs,tot          excit     ->  total
 ------------------------------------------------------------------------------
                          charge      
 ------------------------------------------------------------------------------
         161.000000    -162.000000      -1.000000      -0.000000      -1.000000
 
 ------------------------------------------------------------------------------
                       dipole moment  
 ------------------------------------------------------------------------------
   x    -831.731586     837.538192       5.806605      -1.152748       4.653858
   y     479.840128    -484.888618      -5.048490       0.936371      -4.112119
   z       0.057326      -0.051491       0.005835      -0.002170       0.003665
 
   | dipole moment | =     6.2103 a.u. =    15.7850 debye 
 
 ------------------------------------------------------------------------------
                     quadrupole moment
 ------------------------------------------------------------------------------
  xx   12052.209656  -12244.151284    -191.941628       2.835182    -189.106447
  yy    2375.770740   -2499.742561    -123.971822       8.103394    -115.868427
  zz       5.691210     -98.540040     -92.848830       0.112067     -92.736763
  xy   -2596.837089    2623.080196      26.243107      -9.973670      16.269437
  xz      -5.002918       5.024424       0.021507       0.022139       0.043645
  yz      -2.705431       2.754288       0.048857      -0.012520       0.036338
 
     1/3  trace=    -132.570546
     anisotropy=      91.581068
 
 ==============================================================================
 


    ------------------------------------------------------------------------
         total  cpu-time :  5 minutes and  1 seconds
         total wall-time :  5 minutes and  1 seconds
    ------------------------------------------------------------------------

   ****  egrad : all done  ****


    2018-02-07 17:49:08.765 

fine, there is no data group "$actual step"
next step = relax
 energy change  : actual value =  -0.7453E-06 threshold =   0.1000E-05
 geom. gradient : actual value =   0.2812E-04 threshold =   0.1000E-02

CONVERGENCY CRITERIA FULFILLED IN CYCLE 4

