 operating system is UNIX !

 ridft (nile) : TURBOMOLE V7.2 ( 21285 ) 30 Jun 2017 at 11:51:10
 Copyright (C) 2017 TURBOMOLE GmbH, Karlsruhe


    2018-02-07 17:07:32.991 



                                  r i d f t

                        DFT program with RI approximation 
                                for coulomb part 




                                                 
                                 References:     
                                                 
          TURBOMOLE:                             
              R. Ahlrichs, M. Baer, M. Haeser, H. Horn, and
              C. Koelmel
              Electronic structure calculations on workstation
              computers: the program system TURBOMOLE
              Chem. Phys. Lett. 162: 165 (1989)
          Density Functional:                              
              O. Treutler and R. Ahlrichs                      
              Efficient Molecular Numerical Integration Schemes
              J. Chem. Phys. 102: 346 (1995)                   
          Parallel Version:                                
              Performance of parallel TURBOMOLE for Density    
              Functional Calculations                          
              M. v. Arnim and R. Ahlrichs                      
              J. Comp. Chem. 19: 1746 (1998)                   
          RI-J Method:                                     
              Auxiliary Basis Sets to approximate Coulomb      
              Potentials                                       
              Chem. Phys. Lett. 240: 283 (1995)                
              K. Eichkorn, O. Treutler, H. Oehm, M. Haeser     
              and R. Ahlrichs                                  
              Chem. Phys. Lett. 242: 652 (1995)                
                                                           
              Auxiliary Basis Sets for Main Row Atoms and their
              Use to approximate Coulomb Potentials            
              K. Eichkorn, F. Weigend, O. Treutler and         
              R. Ahlrichs                                      
              Theo. Chem. Acc. 97: 119 (1997)                   
                                                           
              Accurate Coulomb-fitting basis sets for H to Rn 
              F. Weigend                                        
              Phys. Chem. Chem. Phys. 8: 1057 (2006)            
                                                           
          Multipole accelerated RI-J (MARI-J):             
              Fast evaluation of the Coulomb potential for     
              electron densities using multipole accelerated   
              resolution of identity approximation             
              M. Sierka, A. Hogekamp and R. Ahlrichs           
              J. Chem. Phys. 118: 9136 (2003)                  
          RI-JK Method:                                     
              A fully direct RI-HF algorithm: Implementation,
              optimised auxiliary basis sets, demonstration of
              accuracy and efficiency                         
              F. Weigend                                      
              Phys. Chem. Chem. Phys. 4: 4285 (2002)           
          Two-component HF and DFT with spin-orbit coupling:  
              Self-consistent treatment of spin-orbit         
              interactions with efficient Hartree-Fock and    
              density functional methods                      
              M. K. Armbruster, F. Weigend, C. van Wüllen and 
              W. Klopper                                      
              Phys. Chem. Chem. Phys. 10: 1748 (2008)         
          Relativistic all-electron 2c calculations           
              An efficient implementation of two-component    
              relativistic exact-decoupling methods for large 
              molecules                                       
              D. Peng, N. Middendorf, F. Weigend, M. Reiher   
              J. Chem. Phys. 138, 184105 (2013)               
                                         




              +--------------------------------------------------+
              |      general information about current run       |
              +--------------------------------------------------+

 

 DENSITY CONVERGENCE CHECK SWITCHED ON !
 SCF CONVERGENCE IF RMS(delta[D]) <     0.1000000000E-06

 PBE0 hybrid functional
 exchange:    3/4 (LDA+PBE) + 1/4 HF
 correlation: LDA (PW) + PBE
 A Hybrid-DFT calculation using the RI-J approximation will be carried out.
 Allocatable memory for RI due to $ricore (MB):                  5000


              +--------------------------------------------------+
              | Atomic coordinate, charge and isotop information |
              +--------------------------------------------------+

                    atomic coordinates            atom    charge  isotop
        -12.73905934    6.95734895   -0.00618984    o      8.000     0
        -10.81597734    5.61939952   -0.00416802    c      6.000     0
         -8.29995135    6.76322399   -0.00966065    c      6.000     0
         -6.10899608    5.27307281   -0.00668720    c      6.000     0
         -6.20353045    2.60783941    0.00211692    c      6.000     0
         -8.59988667    1.43817631    0.00720564    c      6.000     0
        -10.78825876    2.86839717    0.00373416    c      6.000     0
         -3.00398915    6.28926038   -0.01227298    s     16.000     0
         -2.05078109    3.10467183   -0.00239480    c      6.000     0
         -3.87137167    1.42967412    0.00449013    n      7.000     0
          0.61816789    2.60154348   -0.00243983    c      6.000     0
          1.57551816   -0.60813015    0.00743281    s     16.000     0
          2.37246224    4.34436809   -0.00936499    n      7.000     0
          4.77302618    3.38549765   -0.00745320    c      6.000     0
          4.81698049    0.45486547    0.00210785    c      6.000     0
          5.84077720   -0.22315519    1.68888604    h      1.000     0
          5.83890383   -0.23418669   -1.68132214    h      1.000     0
          6.73310218    4.58984281   -0.01238608    o      8.000     0
         -8.23534432    8.82931542   -0.01526552    h      1.000     0
        -13.97515783    1.24852308    0.01202458    br    35.000     0
         -8.69402515   -0.62511755    0.01369643    h      1.000     0
 
       center of nuclear mass  :   -5.47638076    2.94077538    0.00071412
       center of nuclear charge:   -5.16603115    2.98036772    0.00037793

              +--------------------------------------------------+
              |               basis set information              |
              +--------------------------------------------------+

              we will work with the 1s 3p 5d 7f 9g ... basis set
              ...i.e. with spherical basis functions...

   type   atoms  prim   cont   basis
   ---------------------------------------------------------------------------
    o        2     24     14   def2-SV(P)   [3s2p1d|7s4p1d]
    c       10     24     14   def2-SV(P)   [3s2p1d|7s4p1d]
    s        2     36     18   def2-SV(P)   [4s3p1d|10s7p1d]
    n        2     24     14   def2-SV(P)   [3s2p1d|7s4p1d]
    h        4      4      2   def2-SV(P)   [2s|4s]
    br       1     74     32   def2-SV(P)   [5s4p3d|14s10p6d]
   ---------------------------------------------------------------------------
   total:   21    498    272
   ---------------------------------------------------------------------------

   total number of primitive shells          :   88
   total number of contracted shells         :  120
   total number of cartesian basis functions :  291
   total number of SCF-basis functions       :  272


 integral neglect threshold       :  0.11E-10
 integral storage threshold THIZE :  0.10E-04
 integral storage threshold THIME :         5

 RI-J AUXILIARY BASIS SET information:

              we will work with the 1s 3p 5d 7f 9g ... basis set
              ...i.e. with spherical basis functions...

   type   atoms  prim   cont   basis
   ---------------------------------------------------------------------------
    o        2     70     49   def2-SV(P)   [6s4p3d1f1g|12s5p4d2f1g]
    c       10     70     49   def2-SV(P)   [6s4p3d1f1g|12s5p4d2f1g]
    s        2     77     51   def2-SV(P)   [8s4p3d1f1g|14s5p5d2f1g]
    n        2     70     49   def2-SV(P)   [6s4p3d1f1g|12s5p4d2f1g]
    h        4     16     11   def2-SV(P)   [3s1p1d|5s2p1d]
    br       1     89     58   def2-SV(P)   [8s4p3d2f1g|19s5p5d3f1g]
   ---------------------------------------------------------------------------
   total:   21   1287    890
   ---------------------------------------------------------------------------

   total number of primitive shells          :  140
   total number of contracted shells         :  282
   total number of cartesian basis functions : 1101
   total number of SCF-basis functions       :  890


 symmetry group of the molecule :   c1 

 the group has the following generators :
   c1(z)

    1 symmetry operations found

 there are 1 real representations :   a   

 maximum number of shells which are related by symmetry :  1


    mo occupation :
   irrep   mo's   occupied
    a      272       81
 
 number of basis functions   :                    272
 number of occupied orbitals :                     81
 
  
           ------------------
           density functional
           ------------------
 PBE0 hybrid functional
 exchange:    3/4 (LDA+PBE) + 1/4 HF
 correlation: LDA (PW) + PBE

 iterations will be done with small grid
  
 spherical integration : Lebedev's spherical grid
 spherical gridsize    :                     5
    i.e. gridpoints    :                   590
 value for diffuse not defined
 radial integration    : Chebyshev 2nd kind (scaling 3)
 radial gridsize       :                     8
 integration cells     :                    21
 partition function    : becke
 partition sharpness   :                     3
  

 biggest AO integral is expected to be    21.668154127
  
           ------------------------
               RI-J - INFORMATION
           ------------------------
 Contributions to RI integral batches: 
  neglected integral batches:                  2343
  direct contribution:                            0
  memory contribution:                  4917
 Memory core needed for (P|Q) and Cholesky      7 MByte
 Memory core minimum needed except of (P|Q)     1 MByte
 Total minimum memory core needed (sum)         7 MByte
  
 ****************************************
 Memory allocated for RI-J   243 MByte
 ****************************************
                                            

          ------------------------
          nuclear repulsion energy  :   1647.17771357    
          ------------------------


         -----------------
         -S,T+V- integrals
         -----------------

 1e-integrals will be neglected if expon. factor < 0.114844E-11
 
   Difference densities algorithm switched on.
   The maximal number of linear combinations of
   difference densities is                    20 .

 DIIS switched on: error vector is FDS-SDF
 Max. Iterations for DIIS is     :   4
 DIIS matrix (see manual) 
    Scaling factor of diagonals  :  1.200
    threshold for scaling factor :  0.000

 scf convergence criterion : increment of total energy < .1000000D-06
                  and increment of one-electron energy < .1000000D-03

  MOs are in ASCII format !


 automatic virtual orbital shift switched on 
      shift if e(lumo)-e(homo) < 0.10000000    


 reading orbital data $scfmo  from file mos
 orbital characterization : scfconv=7

 DSCF restart information will be dumped onto file mos


 Starting SCF iterations

          Overall gridpoints after grid construction =        122141

 ITERATION  ENERGY          1e-ENERGY        2e-ENERGY     RMS[dD(SAO)]   TOL
   1  -4011.7270019672    -8854.7956711     3195.8909555    0.000D+00 0.115D-10
                            Exc = -172.719752705     Coul =  3424.26781320    
                            exK = -55.6571049769    
                              N = 161.99999723    
                            current damping = 0.700
 
          max. resid. norm for Fia-block=  7.165D-06 for orbital     81a         
          max. resid. fock norm         =  1.340D-05 for orbital    252a         

 ITERATION  ENERGY          1e-ENERGY        2e-ENERGY     RMS[dD(SAO)]   TOL
   2  -4011.7270019690    -8854.7956969     3195.8909814    0.511D-06 0.726D-11
                            Exc = -172.719747506      Eck =  3368.61072886    
                              N = 161.99999723    
                            current damping = 0.700
 
          Norm of current diis error: 0.65477E-04
          max. resid. norm for Fia-block=  3.081D-06 for orbital     81a         
          max. resid. fock norm         =  5.900D-06 for orbital    252a         

 ENERGY & DENSITY CONVERGED !

          Overall gridpoints after grid construction =        372403

 ITERATION  ENERGY          1e-ENERGY        2e-ENERGY     RMS[dD(SAO)]   TOL
   3  -4011.7270054781    -8854.7956788     3195.8909598    0.217D-06 0.674D-11
                            Exc = -172.719753497      Eck =  3368.61071328    
                              N = 161.99999856    
                            current damping = 0.750
 
          Norm of current diis error: 0.17683E-04
          max. resid. norm for Fia-block=  1.054D-06 for orbital     77a         
          max. resid. fock norm         =  1.990D-06 for orbital    188a         

 End of SCF iterations

   convergence criteria satisfied after    3 iterations


                  ------------------------------------------ 
                 |  total energy      =  -4011.72700547807  |
                  ------------------------------------------ 
                 :  kinetic energy    =   4002.29424402397  :
                 :  potential energy  =  -8014.02124950204  :
                 :  virial theorem    =      1.99764870305  :
                 :  wavefunction norm =      1.00000000000  :
                  .......................................... 


 orbitals $scfmo  will be written to file mos

    irrep                 77a         78a         79a         80a         81a   
 eigenvalues H         -0.17325    -0.16422    -0.12801    -0.11946    -0.07683
            eV          -4.7144     -4.4686     -3.4834     -3.2508     -2.0908
 occupation              2.0000      2.0000      2.0000      2.0000      2.0000 

    irrep                 82a         83a         84a         85a         86a   
 eigenvalues H          0.01595     0.10590     0.11766     0.12747     0.13195
            eV           0.4341      2.8818      3.2018      3.4688      3.5905
 
 
 
 
 ==============================================================================
                           electrostatic moments
 ==============================================================================

 reference point for electrostatic moments:    0.00000   0.00000   0.00000

 
              nuc           elec       ->  total
 ------------------------------------------------------------------------------
                          charge      
 ------------------------------------------------------------------------------
         161.000000    -162.000000      -1.000000
 
 ------------------------------------------------------------------------------
                       dipole moment  
 ------------------------------------------------------------------------------
   x    -831.731015     837.538046       5.807031
   y     479.839203    -484.887893      -5.048690
   z       0.060846      -0.055219       0.005627
 
   | dipole moment | =     7.6949 a.u. =    19.5584 debye 
 
 ------------------------------------------------------------------------------
                     quadrupole moment
 ------------------------------------------------------------------------------
  xx   12052.223148  -12244.167452    -191.944304
  yy    2375.777107   -2499.749774    -123.972667
  zz       5.692029     -98.540921     -92.848892
  xy   -2596.819602    2623.063277      26.243675
  xz      -5.191645       5.214617       0.022972
  yz      -2.760438       2.808252       0.047814
 
     1/3  trace=    -136.255288
     anisotropy=      98.846177
 
 ==============================================================================
 


    ------------------------------------------------------------------------
         total  cpu-time :  19.88 seconds
         total wall-time :  19.89 seconds
    ------------------------------------------------------------------------

   ****  ridft : all done  ****


    2018-02-07 17:07:52.872 

 ridft ended normally
