21
 Energy =   -4011.7322561220
 O   -6.7891639    3.5566622   -0.0032265  0.00    0.1412732   -0.0888891    0.0001802
 C   -5.7123659    2.9455578   -0.0020496  0.00   -0.2637437    0.1327033   -0.0002338
 C   -4.4263046    3.6087163   -0.0048395  0.00    0.0499837   -0.0541712    0.0001227
 C   -3.2568236    2.8885796   -0.0034073  0.00    0.0357797    0.0368469   -0.0001269
 C   -3.2398164    1.4495888    0.0009261  0.00    0.0690337   -0.0020496   -0.0000550
 C   -4.4786221    0.7552349    0.0037855  0.00   -0.0187094    0.0233970   -0.0000625
 C   -5.6411938    1.4692353    0.0023466  0.00   -0.0027972   -0.0594784    0.0001789
 S   -1.6061438    3.4546740   -0.0061729  0.00    0.0059000    0.0018242   -0.0000065
 C   -1.0610640    1.7704864   -0.0014388  0.00   -0.0611353   -0.0288666    0.0001495
 N   -2.0314378    0.8797553    0.0018765  0.00    0.0020849   -0.0369323    0.0001090
 C    0.3135098    1.4331837   -0.0013169  0.00    0.1178919    0.0666379   -0.0003063
 S    0.7500242   -0.2931721    0.0036376  0.00   -0.0122168   -0.0396734    0.0001269
 N    1.2894669    2.3021346   -0.0046127  0.00   -0.0821877    0.0115539    0.0000273
 C    2.5322110    1.7265635   -0.0037090  0.00    0.1474541    0.1329382   -0.0005034
 C    2.4881321    0.1859963    0.0010092  0.00   -0.1124998    0.0002474    0.0000697
 H    3.0086956   -0.1874802    0.8932456  0.00    0.0368313   -0.0330256    0.0494248
 H    3.0074937   -0.1929026   -0.8896401  0.00    0.0367631   -0.0333288   -0.0492686
 O    3.5923193    2.3188898   -0.0062399  0.00   -0.1029227   -0.0672212    0.0002775
 H   -4.4424913    4.6989112   -0.0081132  0.00   -0.0103676    0.0423812   -0.0001273
Br   -7.2975886    0.5503267    0.0061108  0.00    0.0214618    0.0389628   -0.0001373
 H   -4.4737861   -0.3346915    0.0070588  0.00    0.0025425   -0.0440705    0.0001353
21
 Energy =   -4011.7324619550
 O   -6.7893054    3.5548045   -0.0032513  0.00    0.0546485   -0.0321754    0.0000516
 C   -5.7153782    2.9459548   -0.0020699  0.00   -0.0939230    0.0658666   -0.0001512
 C   -4.4248598    3.6060108   -0.0048559  0.00    0.0319945   -0.0197749    0.0000228
 C   -3.2536756    2.8867168   -0.0033939  0.00   -0.0012444    0.0153311   -0.0000190
 C   -3.2359911    1.4462486    0.0009516  0.00    0.0175967    0.0012721    0.0000118
 C   -4.4773870    0.7531073    0.0038156  0.00   -0.0158915    0.0091789   -0.0000233
 C   -5.6402791    1.4683045    0.0023449  0.00   -0.0007470   -0.0394697    0.0001203
 S   -1.6037358    3.4525660   -0.0060997  0.00    0.0018528   -0.0041921   -0.0000434
 C   -1.0600498    1.7680946   -0.0013910  0.00   -0.0279960   -0.0224244    0.0000914
 N   -2.0282207    0.8748755    0.0019169  0.00   -0.0025353   -0.0054667    0.0000136
 C    0.3163768    1.4354113   -0.0013131  0.00    0.0358800    0.0491316   -0.0001590
 S    0.7475037   -0.2926461    0.0036004  0.00    0.0041342   -0.0107932    0.0000307
 N    1.2875932    2.3078345   -0.0046025  0.00   -0.0329388   -0.0079213    0.0000555
 C    2.5321310    1.7327512   -0.0037209  0.00    0.0682055    0.0445851   -0.0001884
 C    2.4842011    0.1870325    0.0009784  0.00   -0.0344605   -0.0092041    0.0000462
 H    3.0064871   -0.1897478    0.8950989  0.00    0.0124747   -0.0076507    0.0055066
 H    3.0052783   -0.1951398   -0.8915574  0.00    0.0124662   -0.0076851   -0.0054744
 O    3.5910731    2.3221720   -0.0062320  0.00   -0.0408094   -0.0287813    0.0001183
 H   -4.4411104    4.6982886   -0.0081752  0.00   -0.0044922    0.0099095   -0.0000019
Br   -7.3021087    0.5625881    0.0060482  0.00    0.0157674    0.0074830   -0.0000214
 H   -4.4734920   -0.3389779    0.0071383  0.00    0.0004091   -0.0074505   -0.0000094
21
 Energy =   -4011.7324933540
 O   -6.7902563    3.5557958   -0.0031468  0.00    0.0023485   -0.0028230    0.0000606
 C   -5.7183586    2.9477272   -0.0019869  0.00   -0.0023795    0.0113537    0.0000346
 C   -4.4249566    3.6056065   -0.0047470  0.00    0.0083726   -0.0012852    0.0000879
 C   -3.2535909    2.8866598   -0.0034132  0.00   -0.0065045    0.0011354   -0.0002794
 C   -3.2357415    1.4458087    0.0008734  0.00    0.0010026   -0.0016405   -0.0000441
 C   -4.4781982    0.7533124    0.0036932  0.00   -0.0026288    0.0022739    0.0000076
 C   -5.6412188    1.4680689    0.0023713  0.00   -0.0018651   -0.0123176    0.0000211
 S   -1.6036998    3.4514294   -0.0064560  0.00    0.0014560    0.0002740    0.0003248
 C   -1.0605133    1.7669762   -0.0015578  0.00   -0.0039753   -0.0151186    0.0000511
 N   -2.0283486    0.8733065    0.0018291  0.00   -0.0004856    0.0054246   -0.0001116
 C    0.3177268    1.4374739   -0.0013914  0.00    0.0018528    0.0277445   -0.0001536
 S    0.7476025   -0.2916981    0.0037310  0.00    0.0055540   -0.0039086    0.0000031
 N    1.2879273    2.3100241   -0.0047316  0.00   -0.0059030   -0.0099530    0.0000233
 C    2.5338815    1.7346301   -0.0037527  0.00    0.0079289   -0.0009308    0.0000064
 C    2.4838511    0.1866862    0.0011139  0.00   -0.0079566   -0.0066506    0.0000276
 H    3.0073732   -0.1914946    0.8953503  0.00    0.0018599    0.0019692   -0.0062764
 H    3.0062164   -0.1970735   -0.8914203  0.00    0.0018704    0.0020073    0.0062591
 O    3.5922746    2.3218838   -0.0062837  0.00   -0.0020950   -0.0002912    0.0000017
 H   -4.4409776    4.6987160   -0.0078779  0.00   -0.0018749   -0.0024030   -0.0001352
Br   -7.3014851    0.5618456    0.0062410  0.00    0.0037051    0.0014972   -0.0001000
 H   -4.4744574   -0.3394348    0.0067923  0.00    0.0001035    0.0034246    0.0001686
21
 Energy =   -4011.7324955040
 O   -6.7903430    3.5561247   -0.0034206  0.00   -0.0031504    0.0007710   -0.0002552
 C   -5.7187072    2.9481225   -0.0023160  0.00    0.0066235    0.0010376   -0.0004613
 C   -4.4248848    3.6054970   -0.0053818  0.00    0.0011363    0.0007338   -0.0005355
 C   -3.2537948    2.8864702   -0.0035798  0.00   -0.0026141   -0.0004809    0.0018546
 C   -3.2359491    1.4456420    0.0010670  0.00   -0.0001521   -0.0007707    0.0000240
 C   -4.4785704    0.7534283    0.0042745  0.00   -0.0000428    0.0006709   -0.0002158
 C   -5.6415840    1.4679457    0.0023468  0.00   -0.0021570   -0.0032494    0.0000780
 S   -1.6038831    3.4510948   -0.0048052  0.00    0.0008304    0.0015441   -0.0017129
 C   -1.0607748    1.7666179   -0.0008679  0.00    0.0001984   -0.0091323   -0.0001431
 N   -2.0286021    0.8730743    0.0020054  0.00   -0.0003440    0.0031550    0.0008512
 C    0.3178104    1.4381939   -0.0010575  0.00   -0.0008955    0.0147402    0.0001562
 S    0.7479055   -0.2914679    0.0029808  0.00    0.0031511   -0.0033109    0.0000159
 N    1.2881237    2.3101787   -0.0039849  0.00   -0.0007405   -0.0050395    0.0000011
 C    2.5342979    1.7346235   -0.0034797  0.00    0.0000187   -0.0039635    0.0000498
 C    2.4839144    0.1865456    0.0004709  0.00   -0.0062206   -0.0026686    0.0000242
 H    3.0080827   -0.1920798    0.8939552  0.00    0.0013940    0.0014174   -0.0027424
 H    3.0067429   -0.1965927   -0.8918738  0.00    0.0013830    0.0014144    0.0027416
 O    3.5926029    2.3216910   -0.0057732  0.00    0.0014908    0.0024569   -0.0000183
 H   -4.4409115    4.6985562   -0.0094392  0.00   -0.0011073   -0.0013374    0.0007145
Br   -7.3015721    0.5617862    0.0055692  0.00    0.0014960    0.0005956    0.0004587
 H   -4.4748528   -0.3392021    0.0085399  0.00    0.0000882    0.0011998   -0.0009060
21
 Energy =   -4011.7324962430
 O   -6.7903757    3.5562659   -0.0037308  0.00   -0.0045495    0.0019918   -0.0000541
 C   -5.7188083    2.9483074   -0.0022944  0.00    0.0085705   -0.0037832    0.0001273
 C   -4.4248471    3.6054648   -0.0047789  0.00   -0.0027367    0.0013135    0.0001428
 C   -3.2539393    2.8863840   -0.0030132  0.00    0.0003816   -0.0010426   -0.0004673
 C   -3.2360935    1.4455823    0.0013700  0.00   -0.0003760   -0.0001141   -0.0000013
 C   -4.4787654    0.7535032    0.0039766  0.00    0.0010873   -0.0001855    0.0002670
 C   -5.6417791    1.4678558    0.0021732  0.00   -0.0021989    0.0019338    0.0000142
 S   -1.6040008    3.4509337   -0.0057523  0.00    0.0003214    0.0021085   -0.0000164
 C   -1.0609334    1.7664200   -0.0010771  0.00    0.0020820   -0.0048029    0.0002447
 N   -2.0287750    0.8730034    0.0023740  0.00   -0.0002260    0.0010690   -0.0003437
 C    0.3178098    1.4386413   -0.0012329  0.00   -0.0014031    0.0060488    0.0001791
 S    0.7480813   -0.2913596    0.0036692  0.00    0.0013158   -0.0028984    0.0000060
 N    1.2882620    2.3101874   -0.0046866  0.00    0.0016311   -0.0014463    0.0000832
 C    2.5345093    1.7345046   -0.0039287  0.00   -0.0028260   -0.0039332   -0.0000778
 C    2.4839215    0.1864402    0.0008499  0.00   -0.0055830   -0.0000200   -0.0000312
 H    3.0084947   -0.1915658    0.8941772  0.00    0.0013815    0.0005866    0.0001876
 H    3.0070984   -0.1970309   -0.8909655  0.00    0.0013875    0.0006008   -0.0001875
 O    3.5927819    2.3215331   -0.0065836  0.00    0.0022422    0.0029687    0.0000295
 H   -4.4409373    4.6984585   -0.0081555  0.00   -0.0006272   -0.0001114   -0.0000161
Br   -7.3016197    0.5617503    0.0054195  0.00    0.0004060    0.0001932    0.0000490
 H   -4.4750334   -0.3390297    0.0074201  0.00    0.0001057   -0.0006933   -0.0001563
21
 Energy =   -4011.7324963730
 O   -6.7903940    3.5561706   -0.0015743  0.00   -0.0031951    0.0015655    0.0000342
 C   -5.7187302    2.9482811   -0.0013080  0.00    0.0057759   -0.0037005   -0.0002479
 C   -4.4248802    3.6055257   -0.0050637  0.00   -0.0026174    0.0009139   -0.0006701
 C   -3.2539766    2.8864643   -0.0045313  0.00    0.0013356   -0.0009552    0.0010985
 C   -3.2361105    1.4456636   -0.0003898  0.00   -0.0003682   -0.0000807    0.0006456
 C   -4.4787254    0.7535279    0.0031836  0.00    0.0008993   -0.0003732   -0.0007543
 C   -5.6417627    1.4678062    0.0028977  0.00   -0.0017430    0.0026575   -0.0001277
 S   -1.6040008    3.4509890   -0.0072074  0.00   -0.0000445    0.0017837   -0.0000394
 C   -1.0609533    1.7663984   -0.0023271  0.00    0.0019289   -0.0024928   -0.0005566
 N   -2.0288233    0.8730690    0.0006257  0.00   -0.0000729    0.0002897    0.0003017
 C    0.3177809    1.4388142   -0.0016722  0.00   -0.0009228    0.0024786   -0.0004081
 S    0.7480399   -0.2913973    0.0033703  0.00    0.0005278   -0.0020523    0.0000158
 N    1.2883387    2.3101411   -0.0045108  0.00    0.0014145   -0.0000914   -0.0000243
 C    2.5345202    1.7343492   -0.0031432  0.00   -0.0018460   -0.0022982    0.0001051
 C    2.4837848    0.1863552    0.0014516  0.00   -0.0042948    0.0004601    0.0000374
 H    3.0081239   -0.1916228    0.8948797  0.00    0.0012080    0.0001724    0.0010564
 H    3.0076045   -0.1969039   -0.8900286  0.00    0.0011960    0.0001528   -0.0010748
 O    3.5928104    2.3214166   -0.0051603  0.00    0.0013051    0.0018870   -0.0000691
 H   -4.4411318    4.6984875   -0.0083392  0.00   -0.0003911    0.0003682    0.0002861
Br   -7.3015412    0.5617023    0.0081546  0.00    0.0001527    0.0001255   -0.0002157
 H   -4.4749227   -0.3389878    0.0059230  0.00    0.0001378   -0.0010268    0.0005812
21
 Energy =   -4011.7324965950
 O   -6.7904255    3.5559098   -0.0036745  0.00   -0.0002377    0.0002746    0.0003317
 C   -5.7185649    2.9481386   -0.0021891  0.00    0.0003200   -0.0012914   -0.0002052
 C   -4.4249634    3.6056517   -0.0047989  0.00   -0.0004588    0.0001285    0.0003738
 C   -3.2539582    2.8866653   -0.0034305  0.00    0.0012359   -0.0005623   -0.0001172
 C   -3.2360546    1.4458467    0.0009104  0.00   -0.0003665   -0.0003631   -0.0005460
 C   -4.4785561    0.7535342    0.0038679  0.00   -0.0000512   -0.0002705   -0.0001236
 C   -5.6416414    1.4677597    0.0024097  0.00   -0.0007029    0.0013007    0.0000883
 S   -1.6039345    3.4511820   -0.0064521  0.00   -0.0003943    0.0008431    0.0004164
 C   -1.0608992    1.7664660   -0.0015877  0.00    0.0007162   -0.0002752   -0.0001063
 N   -2.0288086    0.8732237    0.0016896  0.00    0.0000275   -0.0000284    0.0006177
 C    0.3177490    1.4389165   -0.0013072  0.00   -0.0000758    0.0002327   -0.0002935
 S    0.7478655   -0.2915166    0.0036335  0.00    0.0001268   -0.0005868   -0.0000693
 N    1.2884126    2.3100788   -0.0044657  0.00    0.0000436    0.0005096   -0.0001631
 C    2.5344446    1.7341435   -0.0036165  0.00    0.0008412    0.0000976    0.0001659
 C    2.4835178    0.1862470    0.0009751  0.00   -0.0017567   -0.0001135    0.0000877
 H    3.0084354   -0.1916176    0.8941502  0.00    0.0006613   -0.0000192    0.0007780
 H    3.0071468   -0.1968688   -0.8907176  0.00    0.0006548   -0.0000543   -0.0008033
 O    3.5927781    2.3212731   -0.0060554  0.00   -0.0003691   -0.0000751   -0.0000073
 H   -4.4414790    4.6986058   -0.0077086  0.00   -0.0001690    0.0003090   -0.0004279
Br   -7.3013801    0.5616227    0.0063974  0.00    0.0001637    0.0001350   -0.0000695
 H   -4.4746337   -0.3390120    0.0072003  0.00    0.0001772   -0.0004076    0.0000485
21
 Energy =   -4011.7324965830
 O   -6.7904192    3.5558727   -0.0024926  0.00    0.0005051   -0.0000948   -0.0008603
 C   -5.7185242    2.9480950   -0.0018449  0.00   -0.0009754   -0.0002518    0.0009281
 C   -4.4249790    3.6056548   -0.0048128  0.00    0.0004352   -0.0001421   -0.0002634
 C   -3.2539431    2.8866616   -0.0031798  0.00    0.0005510   -0.0000785   -0.0006958
 C   -3.2360459    1.4458305    0.0012345  0.00   -0.0002465   -0.0000525    0.0003739
 C   -4.4785573    0.7535051    0.0036795  0.00   -0.0002124   -0.0001636    0.0005511
 C   -5.6416438    1.4677711    0.0022224  0.00   -0.0000044    0.0003515   -0.0001764
 S   -1.6039389    3.4512483   -0.0061478  0.00   -0.0004120    0.0001738   -0.0000110
 C   -1.0608641    1.7664919   -0.0012447  0.00    0.0000863    0.0002876    0.0003009
 N   -2.0287786    0.8732471    0.0024425  0.00   -0.0000328   -0.0001252   -0.0014734
 C    0.3177649    1.4389565   -0.0014738  0.00    0.0001619   -0.0002881    0.0004842
 S    0.7478265   -0.2915548    0.0036553  0.00    0.0000838    0.0000505    0.0001151
 N    1.2884534    2.3100910   -0.0050451  0.00   -0.0004451    0.0003620    0.0003981
 C    2.5344469    1.7341036   -0.0039442  0.00    0.0012168    0.0005444   -0.0003446
 C    2.4834460    0.1862223    0.0010940  0.00   -0.0003569   -0.0004917   -0.0001342
 H    3.0083303   -0.1913272    0.8944789  0.00    0.0002003    0.0000194    0.0002134
 H    3.0072834   -0.1971058   -0.8904431  0.00    0.0002120    0.0000876   -0.0002054
 O    3.5927894    2.3212371   -0.0064909  0.00   -0.0005833   -0.0004944    0.0000657
 H   -4.4415609    4.6986179   -0.0085969  0.00   -0.0000576    0.0000496    0.0004991
Br   -7.3014053    0.5616974    0.0054563  0.00    0.0001277    0.0000227    0.0000723
 H   -4.4746300   -0.3390662    0.0066835  0.00    0.0001329    0.0000164    0.0001443
21
 Energy =   -4011.7324966310
 O   -6.7904086    3.5559220   -0.0035748  0.00    0.0000407    0.0000975    0.0002903
 C   -5.7185487    2.9481067   -0.0021631  0.00   -0.0002616   -0.0002872   -0.0002949
 C   -4.4249657    3.6056156   -0.0048964  0.00    0.0001634   -0.0000845    0.0000341
 C   -3.2539476    2.8865949   -0.0034167  0.00    0.0003106    0.0002015   -0.0002149
 C   -3.2360674    1.4457638    0.0007848  0.00   -0.0001022    0.0001724    0.0005804
 C   -4.4786192    0.7534889    0.0038403  0.00    0.0001318   -0.0002176   -0.0000724
 C   -5.6416928    1.4677902    0.0024730  0.00    0.0000429    0.0002036    0.0000461
 S   -1.6039767    3.4512416   -0.0060170  0.00   -0.0002643   -0.0000426   -0.0001926
 C   -1.0608627    1.7664894   -0.0015126  0.00   -0.0000460    0.0000071   -0.0000282
 N   -2.0287717    0.8732204    0.0017398  0.00    0.0001330   -0.0000329   -0.0001468
 C    0.3177849    1.4389810   -0.0014951  0.00    0.0001105   -0.0001881    0.0002036
 S    0.7478586   -0.2915415    0.0031669  0.00    0.0000497    0.0000872    0.0000887
 N    1.2884731    2.3101201   -0.0045645  0.00   -0.0002985    0.0000574    0.0000154
 C    2.5344862    1.7341227   -0.0035330  0.00    0.0004713    0.0002702   -0.0000543
 C    2.4834746    0.1862233    0.0009192  0.00   -0.0000929   -0.0004086   -0.0000422
 H    3.0083182   -0.1916486    0.8942097  0.00    0.0000549    0.0000953    0.0000357
 H    3.0074072   -0.1967536   -0.8907311  0.00    0.0000616    0.0001039   -0.0000151
 O    3.5928235    2.3212357   -0.0057299  0.00   -0.0002204   -0.0001993   -0.0000773
 H   -4.4415241    4.6985853   -0.0082292  0.00   -0.0000329    0.0000025    0.0000317
Br   -7.3014728    0.5617729    0.0066552  0.00    0.0000542   -0.0000545   -0.0001151
 H   -4.4747179   -0.3390808    0.0073047  0.00    0.0000808   -0.0000008   -0.0000968
21
 Energy =   -4011.6346315448
 O   -6.7904164    3.5559147   -0.0031977  0.00   -0.0417656    0.2404443   -0.0008147
 C   -5.7185577    2.9481012   -0.0020401  0.00   -0.1232445   -0.6228687    0.0019856
 C   -4.4249731    3.6056185   -0.0048423  0.00   -0.1988023    0.3884484   -0.0010545
 C   -3.2539451    2.8866104   -0.0034654  0.00    0.4582197   -0.6814683    0.0017892
 C   -3.2360610    1.4457800    0.0008570  0.00   -0.6995032    0.4120870   -0.0007642
 C   -4.4786056    0.7534922    0.0037938  0.00    0.3321847    0.0564876   -0.0003459
 C   -5.6416846    1.4677878    0.0023725  0.00   -0.3245871    0.3461394   -0.0008234
 S   -1.6039771    3.4512542   -0.0062146  0.00    0.0437653   -0.0867410    0.0002656
 C   -1.0608598    1.7665039   -0.0014950  0.00   -0.3351486    0.0350912    0.0001873
 N   -2.0287670    0.8732325    0.0018075  0.00    0.5455943   -0.2659899    0.0004321
 C    0.3177863    1.4389773   -0.0013591  0.00    0.2419830    0.0058555   -0.0002089
 S    0.7478472   -0.2915370    0.0035680  0.00   -0.0826190    0.0220553   -0.0000869
 N    1.2884720    2.3101229   -0.0045709  0.00    0.1726890    0.0127380   -0.0002037
 C    2.5344864    1.7341213   -0.0036819  0.00   -0.2615505   -0.0046446    0.0001039
 C    2.4834703    0.1862162    0.0010116  0.00   -0.0199759    0.0345412   -0.0000965
 H    3.0084247   -0.1915260    0.8942963  0.00    0.0130979   -0.0188183    0.0114826
 H    3.0072719   -0.1969006   -0.8906595  0.00    0.0131036   -0.0188646   -0.0113793
 O    3.5928261    2.3212217   -0.0061706  0.00    0.2649749    0.1150099   -0.0003488
 H   -4.4415370    4.6985907   -0.0080932  0.00   -0.0012119    0.0267358   -0.0000992
Br   -7.3014556    0.5617475    0.0061274  0.00   -0.0091662   -0.0011841    0.0000688
 H   -4.4746941   -0.3390794    0.0071863  0.00    0.0123542    0.0047506   -0.0001113
21
 Energy =   -4011.6380338410
 O   -6.7703467    3.6245338    0.0019790  0.00    0.0167588    0.1220219   -0.0006868
 C   -5.7262210    2.9627415    0.0004029  0.00   -0.0657123   -0.3062800    0.0024863
 C   -4.4072333    3.5848837    0.0001528  0.00   -0.1198872    0.1801303    0.0013424
 C   -3.2487113    2.8189605   -0.0025716  0.00    0.2253496   -0.2598400   -0.0015088
 C   -3.2603441    1.3918427    0.0034942  0.00   -0.3024625    0.3545119   -0.0127636
 C   -4.5281779    0.7501649    0.0017476  0.00    0.2129977    0.0080647    0.0031951
 C   -5.6874224    1.4950605   -0.0012472  0.00   -0.0849282    0.1270276   -0.0006168
 S   -1.6073177    3.3914934   -0.0160708  0.00    0.0051638   -0.0768938    0.0146236
 C   -1.0636199    1.7176575   -0.0027014  0.00   -0.3127408   -0.1703431    0.0030488
 N   -2.0291111    0.8134859    0.0034126  0.00    0.3176331   -0.0730288    0.0044466
 C    0.3323584    1.4152549    0.0024856  0.00    0.1232700    0.1259928   -0.0042969
 S    0.7895973   -0.3000348    0.0188676  0.00   -0.0080174    0.0345922   -0.0042460
 N    1.2874323    2.3133572   -0.0063967  0.00    0.0241778   -0.0529230   -0.0085423
 C    2.5444039    1.7680299   -0.0098433  0.00   -0.1015451   -0.0044238    0.0044208
 C    2.5191066    0.2162024    0.0050706  0.00    0.0340904   -0.0090240    0.0022608
 H    3.0521881   -0.1499967    0.9025734  0.00   -0.0024437    0.0016248   -0.0427781
 H    3.0429959   -0.1670358   -0.8907205  0.00   -0.0025607    0.0018082    0.0423844
 O    3.5981163    2.3748917   -0.0231777  0.00    0.0388935    0.0101071    0.0012646
 H   -4.3872552    4.6801455    0.0053861  0.00    0.0000085   -0.0211165   -0.0064964
Br   -7.3699091    0.6278027   -0.0089539  0.00    0.0191846   -0.0050498    0.0018611
 H   -4.5554783   -0.3431915    0.0013411  0.00   -0.0167456    0.0128179    0.0005890
21
 Energy =   -4011.6390077990
 O   -6.7556446    3.6634460   -0.0437650  0.00    0.0179410    0.0256058    0.0058567
 C   -5.7300804    2.9690291   -0.0204020  0.00   -0.0037180   -0.0716223   -0.0064163
 C   -4.3998839    3.5810362   -0.0145216  0.00   -0.0707144   -0.0074239    0.0023468
 C   -3.2422968    2.7949345    0.0148331  0.00    0.0948258    0.0393204    0.0221785
 C   -3.2748167    1.3844913    0.0199048  0.00   -0.0904060    0.0482974   -0.0065662
 C   -4.5432129    0.7609750    0.0135194  0.00    0.0256021   -0.0127847   -0.0053910
 C   -5.7070181    1.5094006    0.0029565  0.00    0.0417030    0.0376039    0.0029844
 S   -1.6011055    3.3467349    0.0465566  0.00   -0.0010135    0.0382272   -0.0487804
 C   -1.0765172    1.6738438    0.0225711  0.00   -0.1283753   -0.1142408   -0.0008041
 N   -2.0396219    0.7753617    0.0231548  0.00    0.1295553    0.0334923   -0.0126447
 C    0.3320622    1.4009033   -0.0038798  0.00    0.0453028   -0.0107591    0.0096068
 S    0.8139416   -0.3082591   -0.0253250  0.00   -0.0008229    0.0217570    0.0122276
 N    1.2765581    2.3079276   -0.0083157  0.00   -0.0359135    0.0035623    0.0325902
 C    2.5388945    1.7810970   -0.0026884  0.00    0.0246698    0.0211517   -0.0102050
 C    2.5359212    0.2296780   -0.0142544  0.00    0.0132031    0.0240986   -0.0082835
 H    3.0702295   -0.1437271    0.8755300  0.00    0.0031168   -0.0119149    0.0161523
 H    3.0773208   -0.1305086   -0.9052083  0.00    0.0048622   -0.0097449   -0.0146917
 O    3.5869245    2.4032763    0.0107216  0.00   -0.0561357   -0.0369582   -0.0057054
 H   -4.3693130    4.6741575   -0.0409862  0.00    0.0041029   -0.0009276    0.0144495
Br   -7.3879455    0.6430772    0.0221385  0.00    0.0040735    0.0004346   -0.0091211
 H   -4.5793448   -0.3306251    0.0126904  0.00   -0.0213930   -0.0172613    0.0102050
21
 Energy =   -4011.6389156042
 O   -6.7437110    3.6810278    0.0686239  0.00   -0.0196202   -0.0137468   -0.0161816
 C   -5.7290808    2.9702576    0.0295310  0.00    0.0634244    0.0730301    0.0125911
 C   -4.3955356    3.5800235    0.0080994  0.00   -0.0011334   -0.0795943   -0.0061832
 C   -3.2344973    2.7885329   -0.0296765  0.00   -0.0176771    0.1339402   -0.0634872
 C   -3.2799723    1.3843325   -0.0381381  0.00   -0.0018803   -0.1232057    0.0550686
 C   -4.5463421    0.7655228   -0.0078787  0.00   -0.0530704   -0.0110717    0.0149533
 C   -5.7105137    1.5170957    0.0059242  0.00    0.0570993   -0.0453327   -0.0079076
 S   -1.5934253    3.3256366   -0.0822758  0.00    0.0041295    0.0865953    0.0641364
 C   -1.0849038    1.6500185   -0.0493002  0.00    0.0237467   -0.0757186    0.0002589
 N   -2.0446417    0.7559748   -0.0443795  0.00   -0.0065448    0.0832814    0.0118271
 C    0.3288662    1.3869593   -0.0138278  0.00   -0.0123967   -0.0202536   -0.0208062
 S    0.8248412   -0.3142890    0.0243889  0.00    0.0130041   -0.0022912   -0.0076528
 N    1.2628013    2.3040016   -0.0129565  0.00   -0.0409079    0.0051719   -0.0256459
 C    2.5287542    1.7893219    0.0007504  0.00    0.0580133   -0.0012419    0.0038216
 C    2.5437224    0.2377827    0.0256900  0.00   -0.0095678    0.0144872    0.0090444
 H    3.0782738   -0.1121096    0.9254405  0.00    0.0022767   -0.0010286    0.0086185
 H    3.0890054   -0.1405921   -0.8558688  0.00    0.0002900   -0.0030936   -0.0103081
 O    3.5713246    2.4197857   -0.0063185  0.00   -0.0365724   -0.0151931    0.0053113
 H   -4.3613552    4.6729975    0.0278638  0.00    0.0000827   -0.0001804   -0.0095747
Br   -7.3909070    0.6500755   -0.0150919  0.00   -0.0067951    0.0007210    0.0217174
 H   -4.5876528   -0.3261062    0.0246303  0.00   -0.0155122   -0.0052451   -0.0396035
21
 Energy =   -4011.6391479211
 O   -6.7440084    3.6781472    0.0463485  0.00   -0.0140624   -0.0070047   -0.0080006
 C   -5.7270223    2.9700717    0.0204941  0.00    0.0367441    0.0438837    0.0016166
 C   -4.3954868    3.5801061    0.0046419  0.00    0.0014336   -0.0471118   -0.0035157
 C   -3.2343830    2.7915181   -0.0223000  0.00   -0.0049402    0.0599971   -0.0508200
 C   -3.2792805    1.3836101   -0.0282944  0.00   -0.0160983   -0.0535106    0.0497127
 C   -4.5463314    0.7631546   -0.0060641  0.00   -0.0106490   -0.0074807    0.0018810
 C   -5.7081700    1.5158717    0.0034056  0.00    0.0266829   -0.0271151    0.0025289
 S   -1.5924843    3.3307296   -0.0606919  0.00   -0.0029153    0.0535510    0.0509099
 C   -1.0840407    1.6527516   -0.0318950  0.00    0.0108975   -0.0599833   -0.0095590
 N   -2.0439290    0.7595386   -0.0287788  0.00   -0.0023887    0.0548395    0.0060851
 C    0.3284128    1.3866691   -0.0080803  0.00   -0.0050580   -0.0134398   -0.0091345
 S    0.8242874   -0.3150171    0.0216432  0.00    0.0088148    0.0003101   -0.0068634
 N    1.2620906    2.3035242   -0.0092371  0.00   -0.0235210    0.0048687   -0.0205176
 C    2.5284391    1.7884435   -0.0014612  0.00    0.0301107   -0.0050288    0.0054563
 C    2.5430277    0.2371169    0.0185702  0.00   -0.0031959    0.0075393    0.0057095
 H    3.0808171   -0.1156434    0.9157791  0.00   -0.0000993    0.0000930    0.0023300
 H    3.0848751   -0.1385728   -0.8667990  0.00   -0.0011774   -0.0013086   -0.0033776
 O    3.5702217    2.4188981   -0.0091182  0.00   -0.0126779   -0.0035225    0.0030952
 H   -4.3628122    4.6732922    0.0178947  0.00   -0.0004713   -0.0002716   -0.0066209
Br   -7.3899852    0.6509846   -0.0048824  0.00   -0.0059723   -0.0000614    0.0122094
 H   -4.5891872   -0.3289444    0.0140554  0.00   -0.0110343    0.0007796   -0.0231374
21
 Energy =   -4011.6393276298
 O   -6.7433149    3.6778861    0.0105223  0.00   -0.0022145   -0.0026996   -0.0001390
 C   -5.7247233    2.9713020    0.0036804  0.00    0.0032108    0.0055731   -0.0096958
 C   -4.3944178    3.5792282   -0.0056298  0.00   -0.0054779   -0.0023062   -0.0000096
 C   -3.2342840    2.7927830   -0.0101713  0.00    0.0133659   -0.0021951    0.0108416
 C   -3.2807407    1.3822698   -0.0024895  0.00   -0.0113560    0.0005270   -0.0152552
 C   -4.5481504    0.7611687    0.0038410  0.00    0.0144978   -0.0035925   -0.0072908
 C   -5.7073371    1.5155702    0.0015083  0.00   -0.0046217    0.0026198    0.0145587
 S   -1.5914161    3.3329537   -0.0163126  0.00   -0.0046642    0.0140664    0.0018026
 C   -1.0842090    1.6506555   -0.0094095  0.00   -0.0005850   -0.0218612   -0.0036084
 N   -2.0458227    0.7610962   -0.0071686  0.00    0.0035239    0.0106720    0.0133018
 C    0.3277249    1.3830580   -0.0058112  0.00    0.0020942   -0.0108483    0.0021329
 S    0.8279061   -0.3179628    0.0021224  0.00    0.0011992    0.0011785   -0.0007932
 N    1.2595616    2.3012532   -0.0053285  0.00    0.0014422    0.0075523   -0.0051491
 C    2.5280631    1.7888280   -0.0013491  0.00   -0.0047300   -0.0035138    0.0018024
 C    2.5452121    0.2378543    0.0046388  0.00   -0.0003249    0.0043346   -0.0015765
 H    3.0835408   -0.1218859    0.8987156  0.00   -0.0004224   -0.0014703    0.0035297
 H    3.0879790   -0.1288539   -0.8839495  0.00   -0.0001495   -0.0009878   -0.0027713
 O    3.5677168    2.4218876   -0.0015604  0.00    0.0028339    0.0036593    0.0000573
 H   -4.3621327    4.6724336   -0.0077137  0.00   -0.0004211    0.0026521   -0.0004141
Br   -7.3919561    0.6554718    0.0083554  0.00   -0.0024502   -0.0015464    0.0000901
 H   -4.5941490   -0.3307474    0.0087398  0.00   -0.0043331   -0.0017762   -0.0014283
21
 Energy =   -4011.6393307276
 O   -6.7425852    3.6788484   -0.0125822  0.00    0.0029634   -0.0044689    0.0039855
 C   -5.7239768    2.9718348   -0.0064679  0.00   -0.0052989    0.0117229   -0.0070893
 C   -4.3937172    3.5793062   -0.0057318  0.00    0.0036870    0.0014246    0.0007722
 C   -3.2333620    2.7924877   -0.0010552  0.00    0.0038724   -0.0025729   -0.0158035
 C   -3.2813945    1.3819266   -0.0018783  0.00   -0.0036708   -0.0023491    0.0316457
 C   -4.5486797    0.7609679    0.0010757  0.00    0.0042594   -0.0003128   -0.0065152
 C   -5.7074755    1.5165169   -0.0013160  0.00   -0.0034523   -0.0076757    0.0095911
 S   -1.5903021    3.3316843    0.0011943  0.00   -0.0019791    0.0039100    0.0001821
 C   -1.0843522    1.6477549    0.0065056  0.00   -0.0018566   -0.0143145   -0.0047008
 N   -2.0468457    0.7597530    0.0090581  0.00    0.0016360    0.0071648   -0.0169946
 C    0.3275901    1.3795671    0.0023644  0.00   -0.0024015    0.0066955    0.0068255
 S    0.8299983   -0.3201149    0.0053880  0.00    0.0030793    0.0024544   -0.0009469
 N    1.2575966    2.3001215   -0.0023130  0.00   -0.0012853   -0.0015560    0.0008967
 C    2.5267677    1.7899517   -0.0044396  0.00    0.0015928    0.0000382    0.0020569
 C    2.5465222    0.2390376   -0.0016584  0.00    0.0044150   -0.0033045   -0.0002940
 H    3.0902433   -0.1220631    0.8891662  0.00   -0.0016872    0.0011830   -0.0046177
 H    3.0837928   -0.1255034   -0.8949973  0.00   -0.0009957    0.0012743    0.0044253
 O    3.5653797    2.4250261   -0.0074877  0.00   -0.0005307   -0.0006993   -0.0013986
 H   -4.3609725    4.6727552   -0.0095514  0.00   -0.0009558   -0.0017641    0.0014892
Br   -7.3930495    0.6575631    0.0151611  0.00    0.0007404   -0.0003425   -0.0057827
 H   -4.5961271   -0.3311716    0.0047958  0.00   -0.0017372    0.0035523    0.0022639
21
 Energy =   -4011.6393438014
 O   -6.7420962    3.6800973   -0.0023242  0.00    0.0005210   -0.0025540    0.0005112
 C   -5.7239850    2.9725918   -0.0022730  0.00   -0.0010946    0.0045162   -0.0037163