 operating system is UNIX !

 force (c-17-29.gp.local) : TURBOMOLE V7.2 ( 21454 ) 4 Oct 2017 at 12:24:43
 Copyright (C) 2017 TURBOMOLE GmbH, Karlsruhe


    2018-03-04 02:07:54.811 



                             T U R B O M O L E   

                          a o f o r c e - program

                        using direct algorithms for

                       SCF level calculations of
                         * harmonic force constants
                         * hyperpolarizabilities
                         * IR and RAMAN intensities
                         * VCD intensities

                       DFT level calculations of
                         * harmonic force constants
                         * IR intensities
                                                   
       Stephan Boecker, Peter Deglmann, Filipp Furche and Marco Haeser
                          Quantum Chemistry Group
                          Universitaet  Karlsruhe
                                   Germany

 
 
 
 
     References :
 
       RI-J implementation:
         Peter Deglmann, Klaus May, Filipp Furche, Reinhart Ahlrichs
                 Chem. Phys. Lett. 384:103 (2004)
 
       Efficiency, technical details:
         Peter Deglmann, Filipp Furche, Reinhart Ahlrichs
                 Chem. Phys. Lett. 362:511 (2002)
 
       Search of lowest eigenvalues by iterative diagonalization:
         Peter Deglmann, Filipp Furche
                 J. Chem. Phys. 117:9535 (2002)
 
       Vibrational circular dichroism implementation:
        Kevin Reiter, Michael Kuehn, Florian Weigend
                 J. Chem. Phys. 146:054102 (2017)  
 
 


              +--------------------------------------------------+
              | Atomic coordinate, charge and isotop information |
              +--------------------------------------------------+

                    atomic coordinates            atom    charge  isotop
          0.35868135   -0.10512099    3.44297465    cl    17.000     0
          2.77885214    1.67265269   -1.76143456    o      8.000     0
         -0.30410214   -2.98082994   -1.78751147    o      8.000     0
         -2.77293302    1.99346110   -1.22704522    o      8.000     0
          2.28906717    0.00505079   -2.33691528    h      1.000     0
         -1.13433376    2.51106215   -1.85829663    h      1.000     0
          0.05310790   -2.66034177   -0.00129916    h      1.000     0
         -2.32179553    1.48982819    0.49487820    h      1.000     0
         -1.59993412   -1.72400619   -2.09341683    h      1.000     0
          2.46433369    1.50308307    0.05318336    h      1.000     0
 
       center of nuclear mass  :    0.08596783    0.09353081    0.44540328
       center of nuclear charge:    0.07367158    0.10255086    0.31022921

              +--------------------------------------------------+
              |               basis set information              |
              +--------------------------------------------------+

              we will work with the 1s 3p 5d 7f 9g ... basis set
              ...i.e. with spherical basis functions...

   type   atoms  prim   cont   basis
   ---------------------------------------------------------------------------
    cl       1     63     37   def2-TZVP   [5s5p2d1f|14s9p3d1f]
    o        3     46     31   def2-TZVP   [5s3p2d1f|11s6p2d1f]
    h        6      8      6   def2-TZVP   [3s1p|5s1p]
   ---------------------------------------------------------------------------
   total:   10    249    166
   ---------------------------------------------------------------------------

   total number of primitive shells          :   53
   total number of contracted shells         :   70
   total number of cartesian basis functions :  186
   total number of SCF-basis functions       :  166

 
             FOUND RI-J FLAG !
 

 NOTE: THIS IS A PRELIMINARY IMPLEMENTATION. THE RI APPROXIMATION IS
       PRESENTLY USED FOR CPKS CONTRIBUTIONS TO THE HESSIAN ONLY! SEE
       MANUAL FOR FURTHER DETAILS.

  
 AUXILIARY BASIS SET information:

              we will work with the 1s 3p 5d 7f 9g ... basis set
              ...i.e. with spherical basis functions...

   type   atoms  prim   cont   basis
   ---------------------------------------------------------------------------
    cl       1     77     51   def2-TZVP   [8s4p3d1f1g|14s5p5d2f1g]
    o        3     70     49   def2-TZVP   [6s4p3d1f1g|12s5p4d2f1g]
    h        6     16     11   def2-TZVP   [3s1p1d|5s2p1d]
   ---------------------------------------------------------------------------
   total:   10    383    264
   ---------------------------------------------------------------------------

   total number of primitive shells          :   59
   total number of contracted shells         :   92
   total number of cartesian basis functions :  318
   total number of SCF-basis functions       :  264


 symmetry group of the molecule :   c1 

 the group has the following generators :
   c1(z)

    1 symmetry operations found

 there are 1 real representations :   a   

 maximum number of shells which are related by symmetry :  1


 determining totally symmetric integral contributions 
    - equivalent to irreducible tensor elements - 
 which can be formed within each triple of representations :

             representation triple      contributions

              a     a     a               1

    mo occupation :
   irrep   mo's   occupied
    a      166       24
 
 number of basis functions   :                    166
 number of occupied orbitals :                     24
 
  MOs are in ASCII format !


 reading orbital data $scfmo  from file mos
 orbital characterization : scfconv=7
 time elapsed for calculating density matrices :   0.002 sec

 number of non-frozen orbitals          :   166
 number of non-frozen occupied orbitals :    24
 Blocking parameters 
 shells:
    index      start shell   last shell  start bf    last bf    #bf 
       1             1          70             1        186    186
  
           ----------------------
               RI - INFORMATION
           ----------------------

 biggest AO integral is expected to be    10.437462037

 Threshold for integral neglect (rithr2):   0.13E-10
 Threshold for integral neglect (rithr1):   0.13E-10

 Contributions to RI integral batches: 
  neglected integral batches:                   201
  direct contribution:                            0
  memory contribution:                  2284
 Core memory available (ricore):              3000 MiB
 Core memory needed for (P|Q) and Cholesky:      1 MiB
 Core memory used for integrals:                40 MiB
 
 ****************************************
 Memory allocated for RIDFT: 41 MiB
 ****************************************
 
  
           ------------------
           density functional
           ------------------
 PBE0 hybrid functional
 exchange:    3/4 (LDA+PBE) + 1/4 HF
 correlation: LDA (PW) + PBE

 iterations will be done with small grid
  
 spherical integration : Lebedev's spherical grid
 spherical gridsize    :                     3
    i.e. gridpoints    :                   302
 value for diffuse not defined
 radial integration    : Chebyshev 2nd kind (scaling 3)
 radial gridsize       :                     3
 integration cells     :                    10
 partition function    : becke
 partition sharpness   :                     3
  
 
 Derivatives of quadrature weights will be included
 
          Overall gridpoints after grid construction =         47394
 Ordering of quadrature gridpoints disabled.
 
 
 
 
 OCCUPIED-OCCUPIED TENSOR SPACES :

          IRREP   tensor space dimension   number of roots

           a               576                  24
 
 OCCUPIED-VIRTUAL TENSOR SPACES :

          IRREP   tensor space dimension   number of roots

           a              3408                  24
 
 
 
 
 CONSTRUCTING integral bounds

 setting up bound for integral derivative estimation

 increment for numerical differentiation : 0.00050000
 
 machine precision:   2.220446049250313E-016

 integral neglect threshold       :  0.10E-09
 integral storage threshold THIZE :  0.10E-04
 integral storage threshold THIME :         5

 
 
 
 PREPARING NUMERICAL INTEGRATION
 
 Remaining core memory for DFT =                  4976 MB
 
 Memory needed per atom    =                   407 KiB
 
     i. e.                    10 atoms per loop

 Calculating ground state density on molecular grid

 Integral of ground state density: N =   47.99997561230297    


 
 
 CONSTRUCTING first deriv. of <mu|x,y,z|nu> -> Dip. deriv.
  dipole integral derivatives will be neglected if
  expon. factor <0.268817E-11
      ...terminated. cpu:       0.01       wall:       0.01
 
 
 
 
 CONSTRUCTING first deriv. of  <mu|nu>
                               <mu|h|nu>    -> RHS
              second deriv. of <mu|nu>      -> Hessian
                               <mu|h|nu>    -> Hessian
                               nucl. rep.   -> Hessian
     integrals are neglected if expon. factor <  2.688172043010752E-013
  _________________________________
 |                                 |
 |         DFTD3 V3.1 Rev 0        |
 | S.Grimme, University Bonn       |
 |         June 2014               |
 |   see standalone version        |
 |       dftd3 -h for options      |
 |_________________________________|
 
 Please cite DFT-D3 work done with this code as:
 S. Grimme, J. Antony, S. Ehrlich and H. Krieg,
 J. Chem. Phys, 132 (2010), 154104.
 If used with BJ-damping cite also
 S. Grimme, S. Ehrlich and L. Goerigk,
 J. Comput. Chem. 32 (2011), 1456-1465
 For DFT-D2 the reference is
 S. Grimme, J. Comput. Chem., 27 (2006), 1787-1799
 
      ...terminated. cpu:       0.32       wall:       0.36
 
 
 
 
 CONSTRUCTING second deriv. of 2e energy    -> Hessian
   treating Coulomb (and exchange) contribution
     integrals will be neglected if total contribution <  2.688172043010752E-009
      ...terminated. cpu:      23.64       wall:      23.64
   treating exchange-correlation contribution
      ...terminated. cpu:      31.20       wall:      31.23
 
 
 
 
 CONSTRUCTING S(i,j)xi
      ...terminated. cpu:       0.00       wall:       0.06
 
 
 
 
 CONSTRUCTING <i|x,y,z|j>*S(i,j)xi          -> Dip. deriv.
      ...terminated. cpu:       0.01       wall:       0.01
 
 
 
 
 CONSTRUCTING epsilon(i)*S(i,j)xi*S(i,j)chi -> Hessian
      ...terminated. cpu:       0.00       wall:       0.00
 
 
 
 
 CONSTRUCTING G(a,i)[S(k,l)xi]              -> RHS
              G(i,j)[S(k,l)xi]*S(i,j)chi    -> Hessian
 
         Maximum core memory set to                   5000 MB
         This corresponds to                 18459 vectors in CAO basis
      ...terminated. cpu:      32.78       wall:      32.83
 
 
 
 
 CONSTRUCTING G(mu,nu)[D(kap,lam)]xi
 
          Maximum core memory set to                   5000 MB
          Atoms treated simultaneously :                    10
      ...terminated. cpu:      36.15       wall:      36.26
 
 
 
 
 CONSTRUCTING F(a,i)xi                      -> RHS
              F(i,j)xi*S(i,j)chi            -> Hessian
 
        Maximum core memory set to                  5000 MB
        This corresponds to                 31509 vectors in CAO basis
      ...terminated. cpu:       0.04       wall:       0.13
 
 
 
 
 CONSTRUCTING epsilon(i)*S(a,i)xi           -> RHS
      ...terminated. cpu:       0.02       wall:       0.05
 
 
 
 
 SOLVING CPHF equations
 
 Residuum convergence criterium   :  1.000000000000000E-005
 
 Maximum number of Davidson iterations set to                    25
  Switching to small grid
        preparing numerical integration ....
          Overall gridpoints after grid construction =         12564

 Calculating ground state density on molecular grid

 Integral of ground state density: N =   47.99745479039971    




                       Nonorthonormal Krylov Space Iteration


 total number of roots to be determined:  24


 maximum core memory set to  5000 MB,
 corresponding to    18295 vectors in CAO basis


 maximum number of simultaneously treated vectors (including degeneracy):       24


 Iteration IRREP Converged      Max. Euclidean
                 roots          residual norm

    1       a        0        1.058621246123151D-01
 
    2       a        0        1.154629221061405D-02
 
    3       a        0        8.708221642520155D-04
 
    4       a        1        6.373800850600515D-05
 
    5       a       24        8.025119243998898D-06
 

 converged!

  Switching to fine grid
        preparing numerical integration ....
          Overall gridpoints after grid construction =         47394

 Calculating ground state density on molecular grid

 Integral of ground state density: N =   47.99997561230288    



 Iteration IRREP Converged      Max. Euclidean
                 roots          residual norm

    6       a        0        1.480242484531619D-04
 

 NOTE: Residual norms are larger than 1.00D-05 due to mgrid option!

      ...terminated. cpu:     102.96       wall:     105.16
 
 
 
 
 CONSTRUCTING <a|x,y,z|i>*U(a,i)xi          -> Dip. deriv.
      ...terminated. cpu:       0.02       wall:       0.02
 
 
 
 
 CONSTRUCTING RHS(a,i)xi*U(a,i)chi          -> Hessian
      ...terminated. cpu:       0.00       wall:       0.03
 
 
 
 

            -----------------------
            permanent dipole moment
            -----------------------

                                   x                y                z
    electronic part       :   -3.5974790194    -4.8767391504   -15.5594902257
     nuclear   part       :    3.4625640329     4.8198902668    14.5807727781
     total                :   -0.1349149865    -0.0568488836    -0.9787174477

 with reference to the point :   0.0000000        0.0000000        0.0000000
 (given in atomic units)
    | dipole |       :    2.5153486945  debye

   ***  dipole moment & cartesian dipole gradients written onto
        $dipole, $dipgrad,  file=<dipgrad>  ***

             -----------------------------------
             rotational and vibrational analysis
             -----------------------------------


            ==============================================================
            ATOMIC WEIGHTS (average over the natural occurance of isotops)
            ==============================================================
            ('*' denotes special isotop !)
              1     cl               35.45300
              2     o                15.99940
              3     o                15.99940
              4     o                15.99940
              5     h                 1.00797
              6     h                 1.00797
              7     h                 1.00797
              8     h                 1.00797
              9     h                 1.00797
             10     h                 1.00797

          -------------------------------------------------
          CARTESIAN FORCE CONSTANT MATRIX (hartree/bohr**2)
         (translational & rotational space projected out)
          -------------------------------------------------

   ATOM              1 cl                          2 o 
                  dx        dy        dz        dx        dy        dz
   1 cl    dx  0.0076156
           dy -0.0004124 0.0075423
           dz  0.0020725-0.0014401 0.0295603
   2 o     dx  0.0018021-0.0025199 0.0069219 0.0826355
           dy -0.0027365 0.0028244 0.0046906 0.1427562 0.4656105
           dz  0.0104490 0.0071087-0.0125466-0.0447884 0.0856487 0.5287707
   3 o     dx  0.0046314-0.0016967-0.0028135-0.0015886-0.0094003-0.0008059
           dy -0.0008632 0.0002643-0.0081078-0.0081723-0.0073379-0.0008799
           dz -0.0021916-0.0124270-0.0126955 0.0006857 0.0013985 0.0058615
   4 o     dx -0.0013085 0.0038775-0.0079397-0.0132273 0.0026487 0.0004429
           dy  0.0042194 0.0023239 0.0061013 0.0009014 0.0046783-0.0004577
           dz -0.0119139 0.0080284-0.0090034 0.0028783-0.0007321 0.0055870
   5 h     dx -0.0017060-0.0010720-0.0006765-0.0469941-0.1205489-0.0413522
           dy -0.0008995-0.0022737 0.0006360-0.1139341-0.4098707-0.1495709
           dz -0.0007958 0.0007032 0.0015577-0.0250442-0.1013164-0.0877567
   6 h     dx -0.0030914 0.0000569 0.0001692 0.0066035-0.0043186 0.0022523
           dy  0.0002199-0.0004868-0.0013219-0.0044205-0.0038548-0.0009309
           dz  0.0001764-0.0014621 0.0011051 0.0012057-0.0005706-0.0057205
   7 h     dx -0.0051024 0.0010844 0.0006854-0.0008940 0.0012052-0.0011580
           dy  0.0002817-0.0005189 0.0041552 0.0011405 0.0005442-0.0020212
           dz  0.0001614 0.0077702 0.0010998-0.0011139-0.0029673-0.0032171
   8 h     dx -0.0001701-0.0024533 0.0033781 0.0005040 0.0005506-0.0025363
           dy -0.0030570-0.0036046-0.0021712 0.0008159-0.0015663 0.0009447
           dz  0.0068470-0.0036493-0.0009537-0.0034732 0.0010513-0.0025729
   9 h     dx -0.0007785 0.0007794 0.0014280 0.0016886 0.0020457 0.0010058
           dy  0.0009276-0.0028673-0.0000546 0.0025242-0.0020819 0.0003595
           dz  0.0015193 0.0001285 0.0010535 0.0003359 0.0002965-0.0013894
  10 h     dx -0.0018923 0.0023562-0.0032254-0.0305299-0.0122022 0.0764909
           dy  0.0023199-0.0032037-0.0024874-0.0190914-0.0489459 0.0597990
           dz -0.0063242-0.0047604 0.0008227 0.0623921 0.0125008-0.4270159

   ATOM              3 o                           4 o 
                  dx        dy        dz        dx        dy        dz
   3 o     dx  0.2962148
           dy -0.2365465 0.2968112
           dz  0.1374363 0.0386942 0.4834189
   4 o     dx  0.0018963 0.0058917 0.0005606 0.4866945
           dy  0.0076025-0.0104779-0.0006643 0.0916991 0.0997790
           dz  0.0017716-0.0027369 0.0055242-0.0333986-0.1675251 0.4905513
   5 h     dx  0.0017158 0.0067239-0.0033076 0.0006496-0.0028082-0.0015304
           dy  0.0062481 0.0003779-0.0026036-0.0022635-0.0012966 0.0008899
           dz -0.0025153-0.0019167-0.0048946-0.0009932 0.0003918-0.0010335
   6 h     dx -0.0030049 0.0001355 0.0001251-0.3995018-0.1261134 0.1564247
           dy  0.0004439 0.0026981-0.0010748-0.1100099-0.0516323 0.0563565
           dz  0.0004665-0.0003807-0.0014793 0.1085544 0.0472097-0.0941641
   7 h     dx -0.0468742 0.0086651-0.0603465-0.0003841-0.0016345-0.0000095
           dy -0.0038481-0.0451963-0.0889454-0.0014912 0.0002711-0.0021538
           dz -0.0947004-0.0554755-0.4141086 0.0003650-0.0028797-0.0036730
   8 h     dx -0.0016999-0.0005168-0.0016135-0.0711668 0.0283497-0.1155742
           dy -0.0005732 0.0002227 0.0023818 0.0122296-0.0487739 0.1025605
           dz -0.0022993 0.0026320-0.0024249-0.0698404 0.1133133-0.3857423
   9 h     dx -0.2504276 0.2237827-0.0730209-0.0052350-0.0019551-0.0006623
           dy  0.2367584-0.2379096 0.0616830-0.0020526 0.0068314 0.0049642
           dz -0.0388527 0.0257146-0.0558507-0.0004373 0.0036936-0.0045587
  10 h     dx -0.0008632 0.0008998 0.0016723 0.0015829-0.0002609 0.0020144
           dy  0.0010118 0.0005473 0.0015575-0.0005294-0.0017031 0.0003485
           dz  0.0023126 0.0024566-0.0033509 0.0026862 0.0008171-0.0034875

   ATOM              5 h                           6 h 
                  dx        dy        dz        dx        dy        dz
   5 h     dx  0.0462889
           dy  0.1110567 0.4133442
           dz  0.0371286 0.1472293 0.1121032
   6 h     dx -0.0002612 0.0039120 0.0006713 0.3928848
           dy  0.0046181-0.0018635-0.0001138 0.1255868 0.0608538
           dz  0.0012409-0.0010768 0.0013693-0.1497671-0.0630080 0.1183815
   7 h     dx  0.0004782-0.0013618 0.0034176 0.0007176 0.0000982 0.0000060
           dy -0.0011017 0.0001570 0.0032047 0.0003876-0.0005671 0.0007230
           dz  0.0034406 0.0044016-0.0011704-0.0001564 0.0012196 0.0005493
   8 h     dx -0.0001061 0.0001685 0.0008148 0.0047392-0.0146734 0.0432619
           dy  0.0004756 0.0006542-0.0004751 0.0010932-0.0017785 0.0172776
           dz  0.0012831-0.0005054 0.0001547-0.0043296 0.0069715-0.0217482
   9 h     dx -0.0051970-0.0013006-0.0002982 0.0022314-0.0029269-0.0008389
           dy -0.0019302 0.0029351-0.0001340-0.0024552-0.0044026-0.0002826
           dz  0.0009177-0.0002656 0.0015129-0.0001743 0.0008069 0.0016840
  10 h     dx  0.0051319-0.0016258-0.0123857-0.0013173 0.0010639-0.0043058
           dy  0.0045866-0.0021639-0.0475731 0.0017153 0.0010336 0.0015705
           dz  0.0028558 0.0008655-0.0218428-0.0052153 0.0010948 0.0000228

   ATOM              7 h                           8 h 
                  dx        dy        dz        dx        dy        dz
   7 h     dx  0.0609179
           dy -0.0071879 0.0451500
           dz  0.0943813 0.0509832 0.4256904
   8 h     dx  0.0004680 0.0018410 0.0014573 0.0686441
           dy  0.0017170-0.0019870-0.0005019-0.0125227 0.0557473
           dz  0.0011397 0.0005606 0.0040900 0.0690599-0.1140730 0.4071174
   9 h     dx -0.0093026 0.0117885-0.0028282 0.0018812-0.0001578 0.0014106
           dy -0.0006824 0.0042959-0.0023444-0.0006208-0.0003326-0.0051840
           dz -0.0378379 0.0328931-0.0136567 0.0004377-0.0046304-0.0019123
  10 h     dx -0.0000243-0.0018105-0.0010067-0.0030938-0.0000206 0.0002020
           dy -0.0019033-0.0021489-0.0002057-0.0001227 0.0014187-0.0011171
           dz -0.0002780 0.0006005 0.0043964 0.0013142-0.0013129 0.0039921

   ATOM              9 h                          10 h 
                  dx        dy        dz        dx        dy        dz
   9 h     dx  0.2652972
           dy -0.2316936 0.2331335
           dz  0.0748240-0.0582752 0.0726336
  10 h     dx -0.0001577-0.0007754-0.0007325 0.0311636
           dy -0.0003624 0.0003980-0.0003621 0.0123756 0.0547679
           dz -0.0010199-0.0007320 0.0004840-0.0587236-0.0115301 0.4459791
 

   *** projected hessian written onto $hessian (projected), file=<hessian> ***

 dipole moment in principle axis system (a.u.) :
    -0.0463428821    -0.1214975697    -0.9810261818
 norm :  0.989606836823819     

 rotational constants b for rotations around axis of inertia
 and optical intensities for (1 <-- 0) transition

   b   :     0.0739283306     0.0738782433     0.1113926443   (cm**(-1))
   b   :        2216.3156        2214.8140        3339.4675     (MHz)
  int. :     0.0021476627     0.0147616595     0.9624123693     (a.u.)

   x   :     0.9959607093     0.0108811679     0.0891283667
   y   :    -0.0050496904     0.9978467559    -0.0653938256
   z   :    -0.0896480128     0.0646796102     0.9938711093

   ***  normal modes written onto $vibrational normal modes, file=<vib_normal_modes>  ***

 keyword $vibrational reduced masses missing in file <control>


   ***  vibrational spectroscopic data written onto$vibrational spectrum   
        file=<vibspectrum>  ***

          ---------------------------------------------------
          NORMAL MODES and VIBRATIONAL FREQUENCIES (cm**(-1))
          ---------------------------------------------------

 imaginary wave numbers indicate a negative curvature of the energy surface.
 zero frequency modes have no physical meaning except being generators of
 translations and rotations. each vibrational normal mode - given in terms of
 cartesian displacement vectors of all atoms - has been normalized to unity.
 to obtain mass-weigthed normal coordinates in a.u. divide the tabulated
 modes by sqrt(reduced mass * 1822.88853).
 band intensities or cross sections refer to independent non-degenerate normal
 modes, that is, the intensities of degenerate modes have yet to be added.
 dDIP/dQ is the normal mode derivative of the dipole moment.


       mode               1        2        3        4        5        6

     frequency           0.00     0.00     0.00     0.00     0.00     0.00

     symmetry                                                             

        IR                -        -        -        -        -        - 
|dDIP/dQ|   (a.u.)     0.0000   0.0000   0.0000   0.0000   0.0000   0.0000
intensity (km/mol)       0.00     0.00     0.00     0.00     0.00     0.00
intensity (  %   )       0.00     0.00     0.00     0.00     0.00     0.00
 
       RAMAN              -        -        -        -        -        - 
 
  1   cl          x  -0.10201  0.04292  0.00930  0.11466 -0.39880 -0.22793
                  y   0.48768  0.10097  0.02650 -0.11114 -0.05677 -0.12059
                  z   0.08657  0.12591 -0.06784  0.09179 -0.09244  0.25239
  2   o           x   0.06836 -0.13744  0.31085  0.11398 -0.13043  0.12784
                  y  -0.02024 -0.06444 -0.14970 -0.41582 -0.23995  0.07718
                  z  -0.00770 -0.01446  0.01220 -0.01260 -0.03022  0.48539
  3   o           x  -0.16730  0.15992  0.26675 -0.31568 -0.24223  0.13858
                  y   0.13421 -0.26327 -0.12030 -0.13212 -0.16576  0.07222
                  z   0.28918  0.31134 -0.01975  0.15786 -0.05236  0.09994
  4   o           x   0.07640 -0.15112  0.28481  0.16043 -0.14577  0.09034
                  y   0.30093 -0.38672 -0.07972  0.10419 -0.09244  0.04668
                  z  -0.11698  0.03688 -0.30032  0.15786 -0.27815  0.11413
  5   h           x  -0.00737 -0.03813  0.32595 -0.05789 -0.14599  0.17076
                  y  -0.03799 -0.13118 -0.16177 -0.37971 -0.24183  0.09759
                  z   0.10816  0.09442  0.03433  0.02904 -0.01154  0.38971
  6   h           x   0.11238 -0.19231  0.32434  0.18818 -0.10589  0.13291
                  y   0.17109 -0.32073 -0.11425 -0.05672 -0.14730  0.07325
                  z  -0.13004 -0.01595 -0.22602  0.09794 -0.21961  0.24643
  7   h           x  -0.17856  0.16229  0.17236 -0.22969 -0.31175  0.01469
                  y   0.24828 -0.13051 -0.07145 -0.13702 -0.13171  0.00663
                  z   0.27097  0.28705 -0.00964  0.14154 -0.04456  0.13649
  8   h           x   0.02432 -0.09685  0.18587  0.16845 -0.23251 -0.02753
                  y   0.40547 -0.25191 -0.03368  0.08963 -0.06222 -0.01635
                  z  -0.07276  0.06209 -0.26093  0.15150 -0.24658  0.12658
  9   h           x  -0.09883  0.07560  0.29575 -0.20953 -0.19849  0.15728
                  y   0.17731 -0.36499 -0.11659 -0.01750 -0.14163  0.08108
                  z   0.17620  0.25060 -0.12733  0.17910 -0.13849  0.05714
 10   h           x   0.03180 -0.10336  0.21011  0.15571 -0.21307  0.00293
                  y   0.13000  0.02709 -0.09344 -0.35837 -0.18893  0.00924
                  z   0.00000  0.00000  0.00000  0.00000 -0.03977  0.45739

reduced mass(g/mol)    13.487    7.798    6.933    8.017   10.962   10.225


       mode               7        8        9       10       11       12

     frequency         102.65   106.17   139.50   172.48   175.95   219.00

     symmetry            a        a        a        a        a        a   

        IR               YES      YES      YES      YES      YES      YES
|dDIP/dQ|   (a.u.)     0.0006   0.0008   0.0008   0.0033   0.0032   0.0036
intensity (km/mol)       0.63     1.06     1.28    19.18    18.48    22.84
intensity (  %   )       0.07     0.12     0.15     2.23     2.15     2.66
 
       RAMAN             YES      YES      YES      YES      YES      YES
 
  1   cl          x   0.14662 -0.07923  0.01576 -0.05623  0.11981 -0.02532
                  y   0.08622  0.14303 -0.02174 -0.11587 -0.06327  0.01649
                  z  -0.00064  0.02253  0.27320 -0.00175 -0.00644 -0.26155
  2   o           x  -0.01259  0.32433 -0.30864  0.22117  0.10576 -0.21283
                  y   0.17203 -0.18050 -0.11185  0.26405 -0.17368 -0.12005
                  z   0.36347 -0.05679 -0.19264 -0.21037  0.14014  0.17636
  3   o           x  -0.37814 -0.03658  0.02541 -0.20075  0.02971  0.03923
                  y  -0.10670  0.19919  0.31174  0.13132  0.28812  0.24755
                  z  -0.17243 -0.28279 -0.16572  0.27489  0.12038  0.18346
  4   o           x   0.08211 -0.12037  0.24837  0.08489 -0.34556  0.22228
                  y  -0.24417 -0.32018 -0.15376 -0.19409  0.00619 -0.15853
                  z  -0.18998  0.29121 -0.21536 -0.06224 -0.25131  0.13863
  5   h           x   0.22361  0.03825 -0.36488  0.10407 -0.04898 -0.25064
                  y   0.20190 -0.09594 -0.16057  0.25922 -0.15741 -0.14113
                  z   0.10870 -0.06328 -0.03984 -0.10545  0.21067  0.24505
  6   h           x   0.11929 -0.28243  0.32892 -0.00396 -0.31513  0.26895
                  y  -0.13256 -0.00501 -0.20729 -0.00827 -0.02454 -0.19415
                  z  -0.01687  0.15741 -0.08323 -0.12571 -0.19969  0.20754
  7   h           x  -0.23652  0.02116 -0.01680 -0.11319 -0.06066  0.02986
                  y  -0.22350 -0.04966  0.03040  0.20296  0.35978  0.16039
                  z  -0.19649 -0.26136 -0.11159  0.24994  0.13732  0.20482
  8   h           x  -0.05467  0.12368  0.05341  0.17728 -0.40925  0.15368
                  y  -0.14606 -0.26844  0.01176 -0.10613  0.07166 -0.10732
                  z  -0.12816  0.26240 -0.12009 -0.05306 -0.22651  0.17559
  9   h           x  -0.13414 -0.02891  0.04161 -0.14839 -0.09120  0.05117
                  y   0.17500  0.27712  0.38491  0.18564  0.13204  0.28981
                  z  -0.09275 -0.05046 -0.00454  0.26290  0.02045  0.25867
 10   h           x  -0.17613  0.25818 -0.04334  0.29025  0.04593 -0.13516
                  y  -0.06883 -0.10319 -0.02680  0.34714 -0.07104 -0.09504
                  z   0.33127 -0.06937 -0.14349 -0.20322  0.13801  0.19594

reduced mass(g/mol)     8.727    8.899    9.629    6.748    6.768    7.609


       mode              13       14       15       16       17       18

     frequency         408.92   412.78   460.64   483.35   492.23   703.92

     symmetry            a        a        a        a        a        a   

        IR               YES      YES      YES      YES      YES      YES
|dDIP/dQ|   (a.u.)     0.0029   0.0027   0.0066   0.0058   0.0061   0.0024
intensity (km/mol)      15.12    13.18    78.13    60.20    66.66    10.06
intensity (  %   )       1.76     1.53     9.09     7.00     7.75     1.17
 
       RAMAN             YES      YES      YES      YES      YES      YES
 
  1   cl          x  -0.00487 -0.00229  0.00019  0.00088  0.00413  0.00027
                  y  -0.00308  0.00380 -0.00092  0.00435 -0.00126 -0.00050
                  z  -0.00019  0.00155  0.00731  0.00100 -0.00021  0.00415
  2   o           x  -0.00111  0.00670 -0.01428  0.01041 -0.01758  0.00645
                  y  -0.00029  0.00973 -0.00327 -0.00340 -0.00962 -0.02035
                  z   0.00724 -0.01433  0.01942  0.01801 -0.01576 -0.00712
  3   o           x  -0.00347  0.00065  0.00674  0.00611 -0.00343 -0.02059
                  y   0.00862  0.00948  0.01586 -0.01053 -0.01684  0.00306
                  z   0.00928  0.01665  0.01513  0.00858  0.02351 -0.00409
  4   o           x  -0.01519  0.00320  0.00987  0.01481 -0.00593  0.01447
                  y   0.00519  0.00153 -0.01279 -0.01302 -0.00664  0.01103
                  z  -0.01312 -0.00052  0.02090 -0.02389 -0.00366 -0.00604
  5   h           x   0.19179  0.28713  0.22892 -0.61208  0.16036  0.19665
                  y   0.08503  0.05077  0.04870  0.27114 -0.09217 -0.11723
                  z  -0.37899 -0.35053 -0.31107 -0.25482  0.07797  0.12288
  6   h           x  -0.07747  0.26057 -0.18642 -0.04939 -0.09605  0.00016
                  y   0.11223 -0.25782  0.09140  0.47933  0.49320  0.25299
                  z  -0.08314  0.42580 -0.37781  0.22491  0.18284  0.16692
  7   h           x   0.33715 -0.07172 -0.15292  0.08798 -0.27335  0.44633
                  y  -0.36905  0.21972  0.36650  0.10800 -0.06156  0.24390
                  z  -0.00724 -0.00184 -0.00761 -0.02603  0.08333 -0.13999
  8   h           x   0.06667 -0.49295  0.44033 -0.02149  0.00786 -0.04395
                  y   0.11037 -0.09710 -0.00308 -0.16341 -0.22907 -0.43802
                  z   0.00052  0.08477 -0.08003 -0.05649 -0.06777 -0.12238
  9   h           x   0.16874  0.00970 -0.09634 -0.13226  0.49688 -0.17066
                  y   0.31317 -0.03832 -0.18384 -0.15536  0.42051 -0.11735
                  z   0.47093 -0.19138 -0.31640  0.01011 -0.32261  0.15610
 10   h           x  -0.20175 -0.07945 -0.27716  0.19893 -0.01343 -0.44309
                  y  -0.35797 -0.34006 -0.28410 -0.26484  0.03898  0.29247
                  z  -0.04935 -0.05006 -0.04433  0.02444 -0.01120 -0.05552

reduced mass(g/mol)     1.019    1.020    1.037    1.033    1.032    1.028


       mode              19       20       21       22       23       24

     frequency         756.08   762.04   876.96  1694.22  1696.34  1721.63

     symmetry            a        a        a        a        a        a   

        IR               YES      YES      YES      YES      YES      YES
|dDIP/dQ|   (a.u.)     0.0129   0.0128   0.0017   0.0089   0.0089   0.0103
intensity (km/mol)     294.48   292.52     4.95   140.96   140.87   188.59
intensity (  %   )      34.25    34.03     0.58    16.40    16.39    21.94
 
       RAMAN             YES      YES      YES      YES      YES      YES
 
  1   cl          x   0.00664 -0.00035 -0.00033  0.00052 -0.00112  0.00018
                  y   0.00014  0.00685  0.00008 -0.00108 -0.00049 -0.00013
                  z  -0.00070  0.00072 -0.00351 -0.00014  0.00008  0.00177
  2   o           x   0.04253 -0.01912 -0.03082 -0.01645  0.00341  0.01596
                  y  -0.00134  0.01080  0.00385 -0.04444  0.00455  0.03099
                  z  -0.00488  0.00195 -0.00752  0.02864 -0.00511 -0.02154
  3   o           x   0.02853  0.00830  0.01666  0.01134 -0.02143  0.01498
                  y   0.02676  0.02585  0.02523 -0.01355  0.03254 -0.02928
                  z   0.00034  0.00081 -0.01035 -0.01275  0.03220 -0.02602
  4   o           x   0.01032 -0.01496  0.01175 -0.02911 -0.03995 -0.03633
                  y   0.00081  0.04368 -0.02775 -0.00027 -0.00340  0.00191
                  z  -0.00057  0.00341 -0.01348 -0.01640 -0.02016 -0.01849
  5   h           x  -0.21817  0.13775  0.46958  0.10877 -0.00863 -0.09392
                  y   0.08990 -0.02499 -0.17800  0.16274 -0.02073 -0.11689
                  z  -0.06314 -0.02419  0.09810 -0.52348  0.06110  0.36842
  6   h           x   0.02840  0.04260 -0.06854  0.13998  0.19596  0.17749
                  y   0.01582 -0.21291  0.46933 -0.05829 -0.08986 -0.08724
                  z   0.06241 -0.06908  0.19058  0.29311  0.40461  0.34343
  7   h           x  -0.47480 -0.15021 -0.18807 -0.20026  0.37548 -0.25563
                  y  -0.44337 -0.29937 -0.17137  0.14507 -0.37196  0.33491
                  z   0.17685  0.08286  0.06065  0.02399 -0.03399  0.00831
  8   h           x  -0.08130  0.18081 -0.04661  0.32741  0.45738  0.39793
                  y  -0.04932 -0.72756  0.26448  0.07432  0.16082  0.05503
                  z   0.00615 -0.26181  0.08152 -0.04621 -0.05039 -0.07121
  9   h           x  -0.14764 -0.12478 -0.35908  0.00935 -0.01264  0.01754
                  y  -0.15410 -0.09088 -0.32247  0.06930 -0.14828  0.13530
                  z   0.02288  0.10514  0.16376  0.21501 -0.48590  0.38446
 10   h           x  -0.63182  0.33515  0.24233  0.13964 -0.04792 -0.16441
                  y   0.11980 -0.16036 -0.08607  0.56950 -0.04738 -0.37406
                  z  -0.09940  0.04395  0.02634  0.05059 -0.00836 -0.04711

reduced mass(g/mol)     1.062    1.060    1.055    1.078    1.077    1.085


       mode              25       26       27       28       29       30

     frequency        3535.13  3537.67  3581.97  3722.27  3750.02  3752.34

     symmetry            a        a        a        a        a        a   

        IR               YES      YES      YES      YES      YES      YES
|dDIP/dQ|   (a.u.)     0.0079   0.0078   0.0220   0.0084   0.0105   0.0105
intensity (km/mol)     112.30   109.30   859.71   125.78   196.54   196.49
intensity (  %   )      13.06    12.71   100.00    14.63    22.86    22.86
 
       RAMAN             YES      YES      YES      YES      YES      YES
 
  1   cl          x  -0.00053 -0.00033 -0.00001 -0.00001 -0.00003  0.00018
                  y   0.00033 -0.00053 -0.00001 -0.00001  0.00019  0.00003
                  z   0.00006 -0.00001  0.00017 -0.00013  0.00001 -0.00001
  2   o           x   0.00388  0.00700  0.00701  0.00790  0.00664  0.01040
                  y   0.00349  0.00111  0.00788  0.02914  0.02461  0.03815
                  z  -0.01604 -0.04553 -0.03248  0.01890  0.01369  0.01427
  3   o           x  -0.00862  0.00746 -0.00278  0.02798 -0.03408  0.00098
                  y  -0.00228  0.00746 -0.00911 -0.02456  0.03131 -0.00029
                  z  -0.02929  0.03766 -0.03186  0.01525 -0.01050  0.00344
  4   o           x   0.01091 -0.00138 -0.01226 -0.02725 -0.02314  0.03753
                  y  -0.01431 -0.00288  0.00697 -0.01112 -0.00761  0.01367
                  z   0.04680  0.00848 -0.02795  0.01979  0.00803 -0.01913
  5   h           x  -0.01167  0.00182 -0.02209 -0.13459 -0.11500 -0.17252
                  y  -0.04610  0.01059 -0.10335 -0.48658 -0.40829 -0.62454
                  z  -0.03247 -0.02337 -0.06497 -0.19423 -0.15964 -0.24776
  6   h           x  -0.01599  0.04336  0.09302  0.46684  0.37330 -0.62421
                  y  -0.01236  0.01631  0.04356  0.16128  0.13038 -0.21317
                  z   0.03995 -0.01767 -0.06365 -0.20637 -0.16544  0.27225
  7   h           x   0.10892 -0.15123  0.13100 -0.00806 -0.01676 -0.01204
                  y   0.05724 -0.07519  0.06589 -0.03027  0.01841 -0.00727
                  z   0.46764 -0.62540  0.54940 -0.11100  0.00345 -0.05334
  8   h           x  -0.14627 -0.02417  0.09515 -0.04172 -0.00601  0.02895
                  y   0.22804  0.03171 -0.14834  0.02517 -0.01434 -0.00392
                  z  -0.77532 -0.11616  0.50657 -0.10491  0.03768  0.02954
  9   h           x   0.02604  0.03748 -0.08870 -0.44010  0.55518 -0.00663
                  y  -0.02415 -0.02949  0.07005  0.40904 -0.51659  0.00921
                  z  -0.00757  0.03601 -0.04612 -0.12995  0.16163 -0.00044
 10   h           x  -0.04034 -0.10333 -0.08056  0.02090  0.01320  0.00365
                  y  -0.00617 -0.02539 -0.01862  0.02544  0.01707  0.02078
                  z   0.28216  0.73724  0.57794 -0.10519 -0.05618  0.02283

reduced mass(g/mol)     1.064    1.064    1.057    1.070    1.064    1.064
 

         **************************************************************
         *                                                            *
         *  zero point VIBRATIONAL energy  :      0.0757815  Hartree  *
         *    SCF-energy                   :   -689.3405778           *
         *    SCF + E(vib0)                :   -689.2647963           *
         *                                                            *
         **************************************************************




 time elapsed for vibrational analysis     0.03 sec


    ------------------------------------------------------------------------
         total  cpu-time :  3 minutes and 52 seconds
         total wall-time :  3 minutes and 54 seconds
    ------------------------------------------------------------------------

   ****  force : all done  ****


    2018-03-04 02:11:49.205 

