[Molden Format]
[Title]
                                                                                
[Atoms] AU
 cl    1   17 0.35868134717633E+00 -.10512098828452E+00 0.34429746543960E+01
 o     2    8 0.27788521379638E+01 0.16726526932062E+01 -.17614345615970E+01
 o     3    8 -.30410214384996E+00 -.29808299390376E+01 -.17875114687490E+01
 o     4    8 -.27729330217957E+01 0.19934610989526E+01 -.12270452214050E+01
 h     5    1 0.22890671734420E+01 0.50507904272600E-02 -.23369152798750E+01
 h     6    1 -.11343337577290E+01 0.25110621450616E+01 -.18582966305477E+01
 h     7    1 0.53107897970000E-01 -.26603417659587E+01 -.12991553224700E-02
 h     8    1 -.23217955272006E+01 0.14898281942527E+01 0.49487820319287E+00
 h     9    1 -.15999341229737E+01 -.17240061861937E+01 -.20934168326683E+01
 h    10    1 0.24643336888407E+01 0.15030830650708E+01 0.53183362572600E-01
[GTO]
    1 0
 s    7 1.00
 0.69507990945000E+05 0.51457389646325E-03
 0.10426156880000E+05 0.39781344806745E-02
 0.23732334061000E+04 0.20456178670619E-01
 0.67156420071000E+03 0.80148102887582E-01
 0.21841999790000E+03 0.23454770317658E+00
 0.77572249714000E+02 0.44543368582255E+00
 0.28888815277000E+02 0.35466842499038E+00
 s    3 1.00
 0.12710527185000E+03 0.11293688054705E+00
 0.39339582961000E+02 0.48373514210060E+00
 0.76740679989000E+01 -.12292297389810E+01
 s    2 1.00
 0.38745627630000E+01 0.67296821635762E+00
 0.18385832573000E+01 0.34956051409054E+00
 s    1 1.00
 0.50229057542000E+00 0.10000000000000E+01
 s    1 1.00
 0.17962723420000E+00 0.10000000000000E+01
 p    5 1.00
 0.66650423284000E+03 0.33502508198275E-02
 0.15764241690000E+03 0.26763970407523E-01
 0.50262520978000E+02 0.12362682360800E+00
 0.18536078105000E+02 0.35845787918981E+00
 0.72940532777000E+01 0.61677296353714E+00
 p    1 1.00
 0.29433248995000E+01 0.10000000000000E+01
 p    1 1.00
 0.10404970818000E+01 0.10000000000000E+01
 p    1 1.00
 0.38456415080000E+00 0.10000000000000E+01
 p    1 1.00
 0.13069642732000E+00 0.10000000000000E+01
 d    2 1.00
 0.46100000000000E+01 0.18265835045336E+00
 0.10110000000000E+01 0.91329175226681E+00
 d    1 1.00
 0.33900000000000E+00 0.10000000000000E+01
 f    1 1.00
 0.70600000000000E+00 0.10000000000000E+01
 
    2 0
 s    6 1.00
 0.27032382631000E+05 0.57227335211155E-03
 0.40523871392000E+04 0.44353233492995E-02
 0.92232722710000E+03 0.23020107706038E-01
 0.26124070989000E+03 0.92822490667928E-01
 0.85354641351000E+02 0.29378500009671E+00
 0.31035035245000E+02 0.67401604501641E+00
 s    2 1.00
 0.12260860728000E+02 0.63839937025506E+00
 0.49987076005000E+01 0.39534587125718E+00
 s    1 1.00
 0.11703108158000E+01 0.10000000000000E+01
 s    1 1.00
 0.46474740994000E+00 0.10000000000000E+01
 s    1 1.00
 0.18504536357000E+00 0.10000000000000E+01
 p    4 1.00
 0.63274954801000E+02 0.12018332222616E-01
 0.14627049379000E+02 0.83005421790056E-01
 0.44501223456000E+01 0.31991743925964E+00
 0.15275799647000E+01 0.70715542916104E+00
 p    1 1.00
 0.52935117943000E+00 0.10000000000000E+01
 p    1 1.00
 0.17478421270000E+00 0.10000000000000E+01
 d    1 1.00
 0.23140000000000E+01 0.10000000000000E+01
 d    1 1.00
 0.64500000000000E+00 0.10000000000000E+01
 f    1 1.00
 0.14280000000000E+01 0.10000000000000E+01
 
    3 0
 s    6 1.00
 0.27032382631000E+05 0.57227335211155E-03
 0.40523871392000E+04 0.44353233492995E-02
 0.92232722710000E+03 0.23020107706038E-01
 0.26124070989000E+03 0.92822490667928E-01
 0.85354641351000E+02 0.29378500009671E+00
 0.31035035245000E+02 0.67401604501641E+00
 s    2 1.00
 0.12260860728000E+02 0.63839937025506E+00
 0.49987076005000E+01 0.39534587125718E+00
 s    1 1.00
 0.11703108158000E+01 0.10000000000000E+01
 s    1 1.00
 0.46474740994000E+00 0.10000000000000E+01
 s    1 1.00
 0.18504536357000E+00 0.10000000000000E+01
 p    4 1.00
 0.63274954801000E+02 0.12018332222616E-01
 0.14627049379000E+02 0.83005421790056E-01
 0.44501223456000E+01 0.31991743925964E+00
 0.15275799647000E+01 0.70715542916104E+00
 p    1 1.00
 0.52935117943000E+00 0.10000000000000E+01
 p    1 1.00
 0.17478421270000E+00 0.10000000000000E+01
 d    1 1.00
 0.23140000000000E+01 0.10000000000000E+01
 d    1 1.00
 0.64500000000000E+00 0.10000000000000E+01
 f    1 1.00
 0.14280000000000E+01 0.10000000000000E+01
 
    4 0
 s    6 1.00
 0.27032382631000E+05 0.57227335211155E-03
 0.40523871392000E+04 0.44353233492995E-02
 0.92232722710000E+03 0.23020107706038E-01
 0.26124070989000E+03 0.92822490667928E-01
 0.85354641351000E+02 0.29378500009671E+00
 0.31035035245000E+02 0.67401604501641E+00
 s    2 1.00
 0.12260860728000E+02 0.63839937025506E+00
 0.49987076005000E+01 0.39534587125718E+00
 s    1 1.00
 0.11703108158000E+01 0.10000000000000E+01
 s    1 1.00
 0.46474740994000E+00 0.10000000000000E+01
 s    1 1.00
 0.18504536357000E+00 0.10000000000000E+01
 p    4 1.00
 0.63274954801000E+02 0.12018332222616E-01
 0.14627049379000E+02 0.83005421790056E-01
 0.44501223456000E+01 0.31991743925964E+00
 0.15275799647000E+01 0.70715542916104E+00
 p    1 1.00
 0.52935117943000E+00 0.10000000000000E+01
 p    1 1.00
 0.17478421270000E+00 0.10000000000000E+01
 d    1 1.00
 0.23140000000000E+01 0.10000000000000E+01
 d    1 1.00
 0.64500000000000E+00 0.10000000000000E+01
 f    1 1.00
 0.14280000000000E+01 0.10000000000000E+01
 
    5 0
 s    3 1.00
 0.34061341000000E+02 0.25439307208879E-01
 0.51235746000000E+01 0.19008594890375E+00
 0.11646626000000E+01 0.85244113011042E+00
 s    1 1.00
 0.32723041000000E+00 0.10000000000000E+01
 s    1 1.00
 0.10307241000000E+00 0.10000000000000E+01
 p    1 1.00
 0.80000000000000E+00 0.10000000000000E+01
 
    6 0
 s    3 1.00
 0.34061341000000E+02 0.25439307208879E-01
 0.51235746000000E+01 0.19008594890375E+00
 0.11646626000000E+01 0.85244113011042E+00
 s    1 1.00
 0.32723041000000E+00 0.10000000000000E+01
 s    1 1.00
 0.10307241000000E+00 0.10000000000000E+01
 p    1 1.00
 0.80000000000000E+00 0.10000000000000E+01
 
    7 0
 s    3 1.00
 0.34061341000000E+02 0.25439307208879E-01
 0.51235746000000E+01 0.19008594890375E+00
 0.11646626000000E+01 0.85244113011042E+00
 s    1 1.00
 0.32723041000000E+00 0.10000000000000E+01
 s    1 1.00
 0.10307241000000E+00 0.10000000000000E+01
 p    1 1.00
 0.80000000000000E+00 0.10000000000000E+01
 
    8 0
 s    3 1.00
 0.34061341000000E+02 0.25439307208879E-01
 0.51235746000000E+01 0.19008594890375E+00
 0.11646626000000E+01 0.85244113011042E+00
 s    1 1.00
 0.32723041000000E+00 0.10000000000000E+01
 s    1 1.00
 0.10307241000000E+00 0.10000000000000E+01
 p    1 1.00
 0.80000000000000E+00 0.10000000000000E+01
 
    9 0
 s    3 1.00
 0.34061341000000E+02 0.25439307208879E-01
 0.51235746000000E+01 0.19008594890375E+00
 0.11646626000000E+01 0.85244113011042E+00
 s    1 1.00
 0.32723041000000E+00 0.10000000000000E+01
 s    1 1.00
 0.10307241000000E+00 0.10000000000000E+01
 p    1 1.00
 0.80000000000000E+00 0.10000000000000E+01
 
   10 0
 s    3 1.00
 0.34061341000000E+02 0.25439307208879E-01
 0.51235746000000E+01 0.19008594890375E+00
 0.11646626000000E+01 0.85244113011042E+00
 s    1 1.00
 0.32723041000000E+00 0.10000000000000E+01
 s    1 1.00
 0.10307241000000E+00 0.10000000000000E+01
 p    1 1.00
 0.80000000000000E+00 0.10000000000000E+01
 
[MO]
 Sym=     1a   
 Ene= -.10144031073367E+03
 Spin= Alpha
 Occup= 2.000000
     1 0.10001911204848E+01
     2 -.32181842500506E-01
     3 -.10225095831089E-01
     4 0.34474487110091E-02
     5 -.20649295827599E-02
     6 -.87926242375989E-06
     7 0.65228160323415E-06
     8 -.93740694969189E-05
     9 -.23263331700457E-05
    10 0.17116835424355E-05
    11 -.25706641504091E-04
    12 0.92734074562618E-05
    13 -.68053847675692E-05
    14 0.10131548740824E-03
    15 -.24040221488063E-04
    16 0.17511564055062E-04
    17 -.25956953235744E-03
    18 0.55215396240557E-04
    19 -.39758939465699E-04
    20 0.58515529975522E-03
    21 -.10020592593802E-04
    22 -.10209202516469E-04
    23 0.20229795110271E-04
    24 -.36889061122407E-06
    25 0.34266661261138E-05
    26 -.24318598959360E-05
    27 0.24453904156139E-04
    28 0.24935036019367E-04
    29 -.49388940175506E-04
    30 0.92138108914789E-06
    31 -.84104862579429E-05
    32 0.59531925972899E-05
    33 0.25170887301606E-06
    34 0.21605463280194E-05
    35 -.15137803564186E-05
    36 -.36458649997298E-07
    37 -.31492151070798E-05
    38 0.80178406273412E-06
    39 -.30124424036497E-06
    40 0.25053803228642E-06
    41 0.12291654052394E-05
    42 0.30429585514881E-06
    43 -.35276377006972E-06
    44 0.13411751515899E-05
    45 -.17565888468468E-04
    46 0.10453182219145E-03
    47 -.41698121203023E-03
    48 -.19583922072674E-04
    49 -.12000963676608E-04
    50 0.10294502682135E-04
    51 0.68288789332097E-04
    52 0.22408659586920E-04
    53 -.60768402121576E-04
    54 -.71895288841953E-04
    55 -.92708590599192E-04
    56 -.30465531888342E-03
    57 -.46255067218604E-05
    58 -.61042772655183E-05
    59 0.10729783987379E-04
    60 -.12879332496788E-05
    61 -.44302135669164E-05
    62 -.44888004997934E-05
    63 0.13498768276377E-04
    64 0.29981999273903E-04
    65 -.43480767550281E-04
    66 0.67554257889925E-05
    67 0.23603578018840E-04
    68 0.24781650202389E-04
    69 -.81205366342641E-06
    70 -.14579883391123E-05
    71 0.10680415950383E-05
    72 -.16899570845147E-05
    73 -.14415430870819E-06
    74 -.31319777103075E-06
    75 0.27794414001942E-05
    76 0.21002509307024E-05
    77 -.11197303945510E-05
    78 -.15050696985514E-05
    79 -.33718088981712E-06
    80 0.12872244139997E-05
    81 -.17294755755158E-04
    82 0.10384460146869E-03
    83 -.41587704157603E-03
    84 0.12676479984263E-05
    85 0.22832297292451E-04
    86 0.10700749066681E-04
    87 -.25804115898633E-04
    88 -.69603770060382E-04
    89 -.58069950572086E-04
    90 -.10250384976524E-03
    91 0.11514527157429E-03
    92 -.28777669154614E-03
    93 -.47583784043162E-05
    94 -.61454721355872E-05
    95 0.10903850539903E-04
    96 0.24758483557852E-05
    97 0.18370049788509E-05
    98 0.52620837521235E-05
    99 0.21707648373693E-04
   100 0.23549991456691E-04
   101 -.45257639830385E-04
   102 -.17566076208642E-04
   103 -.52159421317224E-05
   104 -.28227526277565E-04
   105 0.57958955161018E-06
   106 0.16900380710090E-05
   107 0.68364684086054E-06
   108 -.13923759563814E-05
   109 0.14713459485825E-05
   110 0.28258155910765E-06
   111 0.61477497451200E-06
   112 -.37387699553858E-05
   113 -.11997900443679E-05
   114 0.62636402124722E-08
   115 -.38760947826143E-06
   116 0.14661339521514E-05
   117 -.18662811502022E-04
   118 0.10828946361767E-03
   119 -.42466308010634E-03
   120 0.20959453629185E-04
   121 -.12577174853920E-04
   122 0.63961903488818E-05
   123 -.58243123690253E-04
   124 0.57730230687085E-04
   125 -.45471915487357E-04
   126 0.90056384869347E-04
   127 0.38889281496508E-04
   128 -.31394636713941E-03
   129 -.57083122629535E-05
   130 -.31822070591177E-05
   131 0.88905193220711E-05
   132 -.15376182128475E-05
   133 0.74822081834355E-05
   134 -.43505439676843E-05
   135 0.25591367792411E-04
   136 0.86151023766702E-05
   137 -.34206470169081E-04
   138 0.12232238822398E-04
   139 -.37989487109598E-04
   140 0.17712671945120E-04
   141 0.20630470291951E-05
   142 -.11432056679283E-05
   143 0.21115319700414E-05
   144 -.38658228540383E-06
   145 0.56244037094608E-06
   146 -.27298418916443E-05
   147 -.23812857534317E-05
   148 0.97133098050437E-06
   149 -.10307552136168E-06
   150 0.96730266469216E-06
   151 -.16638327270263E-05
   152 -.10331288309016E-03
   153 -.18609313626688E-03
   154 0.70005963005078E-06
   155 -.35758725298684E-04
   156 -.28143171259596E-05
   157 -.17144174972448E-05
   158 -.10161754034444E-03
   159 -.18696156332737E-03
   160 0.30242175770263E-04
   161 0.18884168944049E-04
   162 -.20407448782140E-05
   163 -.27752709070538E-04
   164 0.31936160763655E-03
   165 0.58757187058906E-03
   166 -.18173839628209E-04
   167 0.55387025192199E-04
   168 -.30963560216564E-04
   169 -.28232781587232E-04
   170 0.32167905438909E-03
   171 0.59483334190184E-03
   172 0.49925456951884E-04
   173 -.11466969960751E-04
   174 -.40928678310569E-04
   175 -.16610100750621E-05
   176 -.10334631956020E-03
   177 -.18644218618235E-03
   178 -.31383842290426E-04
   179 0.17073697863649E-04
   180 0.36727822014350E-05
   181 -.27689039685601E-04
   182 0.31988198399602E-03
   183 0.58652289797241E-03
   184 -.41534018274323E-04
   185 -.37193538486789E-04
   186 -.35297490152760E-04
 Sym=     2a   
 Ene= -.19039618591437E+02
 Spin= Alpha
 Occup= 2.000000
     1 0.80997037356485E-06
     2 -.19822019284907E-05
     3 -.40667074269651E-05
     4 -.37227942259358E-04
     5 0.26713191769957E-03
     6 -.58882445019527E-05
     7 0.27856759380257E-05
     8 0.45197216750078E-05
     9 0.26192102528338E-04
    10 -.11888723489082E-04
    11 -.24673243991791E-04
    12 -.71110416010669E-04
    13 0.30303135856651E-04
    14 0.81823505387399E-04
    15 0.13403154348699E-03
    16 -.50085115102394E-04
    17 -.21415979942811E-03
    18 -.41110807251622E-03
    19 0.20616380045266E-03
    20 0.17717153738252E-03
    21 -.25195898902568E-04
    22 -.93767615789141E-05
    23 0.34572660481482E-04
    24 0.11003161083951E-04
    25 0.35500936816617E-05
    26 -.83947013730703E-05
    27 0.56995035257029E-04
    28 0.15472403856334E-04
    29 -.72467439113364E-04
    30 -.34050198388365E-04
    31 0.10691355101684E-04
    32 0.57595847238182E-05
    33 -.56716728065931E-05
    34 0.59914581104193E-05
    35 0.15078240642880E-06
    36 -.17708870059478E-05
    37 -.16841501887324E-05
    38 0.79287769049736E-06
    39 0.93802345709553E-05
    40 -.63542343828116E-05
    41 -.99517351684885E-06
    42 -.34133107203630E-05
    43 -.66693261443310E-02
    44 -.97848239350175E-02
    45 -.58914435285618E-03
    46 0.64073427548871E-03
    47 -.15403329127899E-02
    48 -.33410337531712E-06
    49 0.16602326111087E-04
    50 -.14904568438614E-04
    51 0.18918653595640E-04
    52 0.75618543159001E-04
    53 0.26484185696691E-05
    54 0.22447996430211E-03
    55 0.60485360095554E-03
    56 -.46163746697828E-03
    57 0.76542409120838E-05
    58 -.67944396284352E-05
    59 -.85980128364859E-06
    60 0.18757059551850E-04
    61 -.14550642340992E-04
    62 0.56958426975165E-07
    63 0.13511704097543E-04
    64 -.32370820633757E-05
    65 -.10274622034168E-04
    66 -.84661987329213E-04
    67 0.51215725400566E-04
    68 -.20458860216552E-05
    69 -.15219577391294E-05
    70 0.11416942956337E-05
    71 -.16482541078982E-05
    72 0.16472672357625E-05
    73 -.93236113065952E-06
    74 0.17392017218750E-06
    75 0.39465334238261E-06
    76 -.59938250207688E-06
    77 0.20374447654847E-05
    78 0.38753203951296E-06
    79 -.11479882347653E-01
    80 -.16856601561508E-01
    81 -.94165539053138E-03
    82 0.68317397220864E-03
    83 -.17687191667767E-03
    84 0.18565246807963E-04
    85 -.68329239760896E-04
    86 -.30405515029573E-04
    87 -.37157111996569E-04
    88 0.20337810237437E-03
    89 0.20716194254474E-04
    90 -.38239926971844E-03
    91 0.34614191285098E-04
    92 -.35155830393460E-03
    93 -.56882979461407E-05
    94 -.36320917104912E-05
    95 0.93203896566320E-05
    96 0.13732314045059E-04
    97 0.13045711988612E-05
    98 0.67350140918791E-05
    99 0.14572361127504E-04
   100 0.39535688882662E-04
   101 -.54108050010166E-04
   102 -.57457638962863E-04
   103 -.19739222846570E-04
   104 -.25679647963003E-04
   105 0.37029241594272E-05
   106 0.50182084107739E-05
   107 -.20660516492166E-05
   108 -.43036154733066E-05
   109 -.19061277811766E-05
   110 0.39773972307614E-05
   111 -.66437860829662E-06
   112 -.48265052978744E-05
   113 -.12054980711571E-05
   114 -.33789590794642E-05
   115 0.43518253241713E+00
   116 0.63948329420850E+00
   117 0.33197954236637E-01
   118 -.21883146324043E-01
   119 0.11005243118313E-01
   120 0.14535681497438E-02
   121 -.25650863936427E-04
   122 0.68269540867968E-03
   123 -.24423932978542E-02
   124 0.10222935635922E-03
   125 -.11729737693562E-02
   126 0.14055600317625E-02
   127 -.38162010414183E-03
   128 0.82502134525168E-03
   129 0.34115598761597E-04
   130 -.71395334684533E-04
   131 0.37279735922936E-04
   132 0.36187640951723E-04
   133 -.99392727081976E-05
   134 -.47937442460817E-04
   135 -.15414761116672E-03
   136 0.33595119368334E-03
   137 -.18180358251661E-03
   138 -.16453572510901E-03
   139 0.53483463511136E-04
   140 0.23283387194656E-03
   141 -.83056175615548E-05
   142 0.11495393620967E-05
   143 -.51933604777147E-04
   144 0.25186291120987E-04
   145 -.35493188917360E-04
   146 0.55838356411020E-04
   147 -.14043135843335E-04
   148 0.33950920023484E-04
   149 0.13837885947965E-04
   150 0.28169772156724E-04
   151 -.44665415487854E-04
   152 0.75267042642069E-03
   153 0.30786471292368E-03
   154 -.60410568600697E-04
   155 0.91861450321129E-04
   156 0.12240973453041E-03
   157 0.77134514722373E-03
   158 0.11865559979271E-02
   159 -.21679668577102E-02
   160 -.83958946902727E-03
   161 -.26590902865456E-03
   162 0.37380455380236E-03
   163 -.38952942905220E-04
   164 0.33852186168663E-03
   165 0.51742242761742E-03
   166 0.10097053935521E-04
   167 0.51006422823821E-04
   168 -.49687379093560E-04
   169 0.75604456513746E-03
   170 0.94819628750338E-03
   171 -.27633809253350E-02
   172 -.22586827803599E-03
   173 0.30887369282288E-03
   174 -.87202081866414E-03
   175 0.42480568168038E-04
   176 -.62391270739357E-03
   177 -.49696941721106E-03
   178 -.73319589879587E-04
   179 -.12033565773070E-03
   180 -.10027414904770E-03
   181 -.42513042006835E-04
   182 0.72277805039225E-03
   183 0.53260176708436E-03
   184 -.81081756318217E-04
   185 -.63323350089458E-04
   186 -.86248906994943E-04
 Sym=     3a   
 Ene= -.19039570879235E+02
 Spin= Alpha
 Occup= 2.000000
     1 0.10154847254941E-05
     2 -.24233822556964E-05
     3 -.52631932673009E-05
     4 -.34740501831904E-04
     5 0.26706087604185E-03
     6 0.47671533809593E-06
     7 -.71020183102404E-05
     8 0.33576945062754E-05
     9 -.29048893061371E-05
    10 0.32162937349437E-04
    11 -.19551191437804E-04
    12 0.10790348738561E-04
    13 -.88970554062977E-04
    14 0.68196873546350E-04
    15 -.31371817348826E-04
    16 0.17496364913141E-03
    17 -.18948589813677E-03
    18 0.14978040800327E-04
    19 -.47544754383098E-03
    20 0.98975917205943E-04
    21 -.48470543266566E-05
    22 -.29873505386901E-04
    23 0.34720559713557E-04
    24 0.15465698409455E-05
    25 0.96938705201587E-05
    26 -.63508033158857E-05
    27 0.23292978663606E-06
    28 0.65998570993498E-04
    29 -.66231500780134E-04
    30 -.90161262409013E-06
    31 -.16541868670760E-04
    32 0.35229798924197E-04
    33 -.18820356615667E-05
    34 -.38284197428947E-05
    35 0.42916288602984E-05
    36 -.13392416189698E-06
    37 -.53224703635889E-05
    38 -.36518343444308E-05
    39 0.26589399671022E-05
    40 0.10458834438498E-04
    41 -.21059899750656E-05
    42 0.19287693279632E-05
    43 -.17474036063575E-01
    44 -.25664296744929E-01
    45 -.14011780640797E-02
    46 0.99314175663850E-03
    47 -.37429260171150E-03
    48 0.56132269773269E-04
    49 0.72279857705939E-04
    50 -.35946570365446E-04
    51 -.17048863782603E-03
    52 -.16096047089434E-03
    53 0.27122927344962E-04
    54 0.14590025328663E-03
    55 -.24368770128549E-03
    56 -.45101273924428E-03
    57 0.64438843250493E-05
    58 -.14797538342433E-04
    59 0.83536540173835E-05
    60 -.50324680988705E-05
    61 -.76819427708866E-05
    62 -.70886933863479E-05
    63 -.89508196944979E-05
    64 0.63564006591932E-04
    65 -.54613186897434E-04
    66 0.35759345370024E-04
    67 0.36175448127294E-04
    68 0.18717566863251E-04
    69 0.64676776760264E-06
    70 -.86938772814204E-06
    71 -.84002542641929E-06
    72 -.49100223236511E-05
    73 -.31611865180725E-05
    74 -.27291169048364E-05
    75 0.40422923072420E-05
    76 0.43275925534303E-05
    77 0.38561292786175E-05
    78 -.23164413227349E-05
    79 0.43489112487924E+00
    80 0.63905117349091E+00
    81 0.33177198787746E-01
    82 -.21868755567075E-01
    83 0.11022469049609E-01
    84 -.62645659690103E-03
    85 0.11238905843272E-02
    86 0.95404717628523E-03
    87 0.99948782178660E-03
    88 -.19100445158769E-02
    89 -.16279022391794E-02
    90 -.30839882258410E-03
    91 0.12483991904451E-02
    92 0.10778076188952E-02
    93 -.12733927552647E-04
    94 -.23381471562062E-04
    95 0.36115399114710E-04
    96 -.76345787463040E-04
    97 0.37638341139281E-04
    98 0.85414021442646E-05
    99 0.65238382477608E-04
   100 0.10655238918339E-03
   101 -.17179077166100E-03
   102 0.35767416368393E-03
   103 -.18984866862490E-03
   104 -.39020669420552E-04
   105 0.34838216720243E-05
   106 0.23472773616478E-04
   107 -.51946637649956E-04
   108 0.39297406983078E-04
   109 -.30685481147671E-04
   110 0.35102085179308E-04
   111 -.43971444231158E-04
   112 -.80654930847385E-06
   113 0.34591642613402E-04
   114 -.19956237417084E-04
   115 0.11201703139583E-01
   116 0.16475630688420E-01
   117 0.77594787055094E-03
   118 -.26146530212297E-03
   119 -.10877499661836E-02
   120 0.44603471317086E-04
   121 -.74029584708634E-05
   122 0.12870554052851E-04
   123 -.17719669504954E-03
   124 -.17010805911524E-04
   125 -.40912773144135E-04
   126 -.61890748456593E-03
   127 -.49649932820605E-04
   128 -.38409500106777E-03
   129 0.12995385669326E-04
   130 -.89744622954158E-05
   131 -.40209233739104E-05
   132 -.17017454509253E-04
   133 0.22031871509478E-05
   134 -.14153213896489E-04
   135 -.72052018964975E-04
   136 0.70631782569855E-04
   137 0.14202363951193E-05
   138 0.34549168613745E-04
   139 -.82412841955454E-05
   140 0.65202528401182E-04
   141 -.15674431376984E-05
   142 0.48292694445876E-06
   143 -.35091189459042E-05
   144 0.24680388969210E-05
   145 -.29032651726762E-05
   146 0.41269632386600E-05
   147 -.36509325286554E-06
   148 0.22553506870906E-05
   149 0.58101386384460E-06
   150 0.22821225267811E-05
   151 0.30496216222518E-04
   152 -.61319947561338E-03
   153 -.45690527005028E-03
   154 0.12611292372129E-03
   155 0.69005255438473E-05
   156 -.11040630313212E-03
   157 -.14158148969365E-04
   158 0.81057644206943E-03
   159 0.22468210673468E-03
   160 -.74047379553951E-04
   161 -.13231441659176E-03
   162 0.12328994088580E-03
   163 0.75550315025497E-03
   164 0.95033558937846E-03
   165 -.27324554256092E-02
   166 -.22764025747314E-03
   167 -.18613414203684E-03
   168 -.90471994968065E-03
   169 -.11232359898410E-04
   170 0.75804963674352E-03
   171 0.41613283838542E-03
   172 0.77965618578348E-04
   173 -.89927278852259E-05
   174 -.13338304235231E-03
   175 0.77283056560922E-03
   176 0.11506555131938E-02
   177 -.22079334064054E-02
   178 0.66334190021163E-03
   179 -.65757138167051E-03
   180 0.20070941282522E-03
   181 -.50428925250506E-04
   182 0.35414062934496E-03
   183 0.57231775543669E-03
   184 -.58696442301623E-04
   185 -.10714469572047E-04
   186 -.39127276784371E-04
 Sym=     4a   
 Ene= -.19039519792944E+02
 Spin= Alpha
 Occup= 2.000000
     1 0.10131105650197E-05
     2 -.24359672676914E-05
     3 -.51895124724063E-05
     4 -.38633593004449E-04
     5 0.28750491050633E-03
     6 0.58720420023150E-05
     7 0.33829822747533E-05
     8 0.38507629847295E-05
     9 -.26600873575316E-04
    10 -.15151765107398E-04
    11 -.22149230920867E-04
    12 0.73460925435369E-04
    13 0.41588218256813E-04
    14 0.76578246969740E-04
    15 -.14448671526531E-03
    16 -.79866754863837E-04
    17 -.21022242700644E-03
    18 0.39203448550900E-03
    19 0.23318988547559E-03
    20 0.11938603328966E-03
    21 -.23661115827838E-04
    22 -.15185583588981E-04
    23 0.38846699416819E-04
    24 -.12499373043797E-04
    25 0.41358620440782E-05
    26 0.17581656429853E-05
    27 0.48710488606352E-04
    28 0.26034458989137E-04
    29 -.74744947595489E-04
    30 0.33972632831844E-04
    31 -.26901815307701E-04
    32 -.14849245742214E-04
    33 0.46261790475928E-05
    34 0.53706967302938E-05
    35 0.43836804783050E-05
    36 0.24523928734251E-05
    37 -.16162858037379E-05
    38 -.34105505447394E-05
    39 -.86590633693268E-05
    40 -.55892599815458E-05
    41 -.24707739799379E-05
    42 0.20058841851830E-05
    43 0.43498354959584E+00
    44 0.63919007614046E+00
    45 0.33177534331979E-01
    46 -.21853234578004E-01
    47 0.10934695230037E-01
    48 -.60243793470450E-03
    49 -.12567809397263E-02
    50 0.79278894085656E-03
    51 0.10539831780098E-02
    52 0.20903452158310E-02
    53 -.13679016491159E-02
    54 -.83314178382583E-03
    55 -.10385554774497E-02
    56 0.93954755127816E-03
    57 -.79648910124288E-04
    58 0.33871524283072E-04
    59 0.45777385841216E-04
    60 0.41293067592010E-04
    61 -.94568558063754E-05
    62 0.25074597316318E-04
    63 0.37532922562753E-03
    64 -.14814628225707E-03
    65 -.22718294337047E-03
    66 -.19559447483170E-03
    67 0.48235963439539E-04
    68 -.12650184695935E-03
    69 -.30730517993441E-04
    70 0.20192021831751E-04
    71 -.64284524534536E-04
    72 0.25050680175358E-04
    73 -.23188329879105E-04
    74 0.22144363210284E-04
    75 0.16178636154910E-04
    76 -.39021101722684E-05
    77 0.64102376846002E-04
    78 0.11176320087903E-04
    79 0.17291541193202E-01
    80 0.25424861784344E-01
    81 0.12376546909987E-02
    82 -.56371632894563E-03
    83 -.92731637206268E-03
    84 -.22727722238411E-04
    85 0.53005229010686E-04
    86 0.34672336214352E-04
    87 0.11003643563191E-03
    88 -.15391389366811E-03
    89 -.10022918273719E-03
    90 0.28827816098500E-03
    91 -.41228036317150E-03
    92 -.50037127147286E-03
    93 -.15198150047579E-04
    94 0.16199376254276E-04
    95 -.10012262066962E-05
    96 -.37935009160465E-05
    97 0.12499779899006E-04
    98 0.14160727407618E-04
    99 0.56682657172344E-04
   100 -.44233942915036E-04
   101 -.12448714257309E-04
   102 0.60680584964434E-04
   103 -.52167376935423E-04
   104 -.57355352801908E-04
   105 -.29844136826919E-07
   106 0.23892903052610E-05
   107 -.41790769991977E-05
   108 0.41111973631990E-05
   109 -.33000743807656E-05
   110 0.31263415003717E-05
   111 -.40711572519941E-05
   112 0.94505056438756E-07
   113 0.24804786516753E-05
   114 -.19799744469131E-05
   115 0.71195548904265E-02
   116 0.10475358461051E-01
   117 0.47223495436851E-03
   118 -.23271502868159E-03
   119 0.20804613337536E-03
   120 -.10725984002931E-04
   121 0.16580707275177E-04
   122 0.12894913187245E-04
   123 0.84460010585971E-04
   124 -.64900901469155E-04
   125 -.69864258568823E-04
   126 0.16654924560378E-03
   127 0.30279387397361E-03
   128 -.36771234539702E-03
   129 -.96288917615353E-05
   130 0.17063462918717E-05
   131 0.79225454696636E-05
   132 -.82775272583693E-05
   133 0.95640436358852E-05
   134 -.57072775568750E-05
   135 0.56701202580127E-04
   136 -.52026880548485E-05
   137 -.51498514525279E-04
   138 0.17935887159478E-04
   139 -.38072237950986E-04
   140 0.40125787054531E-04
   141 0.55636968709533E-05
   142 0.65645060633131E-06
   143 -.24416591998424E-05
   144 -.24919503688157E-05
   145 -.37181200596161E-05
   146 0.18163548049491E-05
   147 -.49725322769770E-05
   148 0.28373991518394E-05
   149 0.14594747642920E-05
   150 0.68265959010896E-05
   151 0.77249362199481E-03
   152 0.11974359968659E-02
   153 -.22076348340635E-02
   154 0.26545202210362E-03
   155 0.86241694387550E-03
   156 0.34479622133069E-03
   157 0.74242244053907E-04
   158 -.52423729423438E-03
   159 -.56454160854357E-03
   160 -.12564378831493E-03
   161 0.10708009532808E-03
   162 -.60927557680779E-04
   163 -.17280894910808E-05
   164 0.79378300632430E-03
   165 0.40131289429884E-03
   166 -.43651766680071E-04
   167 0.95371771859218E-04
   168 -.13361037705151E-03
   169 -.85691715972085E-05
   170 0.42179470773180E-03
   171 0.42441756392379E-03
   172 0.23448362386154E-04
   173 -.21037557233393E-04
   174 -.10038813180866E-03
   175 0.19853903681285E-06
   176 0.79482822786795E-03
   177 0.16555494189609E-03
   178 0.16677061234453E-03
   179 -.36856191312076E-04
   180 0.10658387138004E-03
   181 0.75297119441491E-03
   182 0.10058026907404E-02
   183 -.26992507790779E-02
   184 0.19690186779602E-03
   185 0.53725454441588E-04
   186 -.93645641729671E-03
 Sym=     5a   
 Ene= -.92666647096741E+01
 Spin= Alpha
 Occup= 2.000000
     1 -.29289370379309E+00
     2 -.21826419220481E+00
     3 0.82942656980317E+00
     4 0.29072797367473E-01
     5 -.10586049788651E-01
     6 -.61188780661017E-04
     7 0.45678920295922E-04
     8 -.66782793455066E-03
     9 -.52598065277292E-04
    10 0.39005711350479E-04
    11 -.57281053913969E-03
    12 0.39432597929079E-04
    13 -.28532722665485E-04
    14 0.42468496679022E-03
    15 -.11448806636810E-03
    16 0.83230547568290E-04
    17 -.12333079300582E-02
    18 0.25815663136273E-03
    19 -.18605844350380E-03
    20 0.27387757530467E-02
    21 -.44821909284511E-04
    22 -.45956455712694E-04
    23 0.90778364997204E-04
    24 -.14760745121026E-05
    25 0.15209705262389E-04
    26 -.10978874816195E-04
    27 0.10486100854529E-03
    28 0.10699775757713E-03
    29 -.21185876612242E-03
    30 0.38740868794814E-05
    31 -.35957306567956E-04
    32 0.25596182612013E-04
    33 0.13640096031682E-05
    34 0.85025840280250E-05
    35 -.71898931611927E-05
    36 -.21908373902377E-06
    37 -.12509165684453E-04
    38 0.39170844051900E-05
    39 -.16109271777642E-05
    40 0.11017521618119E-05
    41 0.57291695104426E-05
    42 0.11351050670054E-05
    43 -.82511638977114E-07
    44 0.61939076202650E-05
    45 -.90142375550726E-04
    46 0.50338448916628E-03
    47 -.18655762975179E-02
    48 -.72437668826568E-04
    49 -.43420364512764E-04
    50 0.30046402291556E-04
    51 0.28043181349888E-03
    52 0.91818600608577E-04
    53 -.19988219195906E-03
    54 -.33724331452328E-03
    55 -.43758488122965E-03
    56 -.13775436018421E-02
    57 -.13919032551211E-04