
OPTIMIZATION CYCLE 529
Thu Mar  8 00:49:48 PST 2018
 hostname is c-8-254.local

 frog (c-8-254.local) : TURBOMOLE V7.1 ( ) 5 Apr 2016 at 11:29:09
 Copyright (C) 2016 TURBOMOLE GmbH, Karlsruhe


    2018-03-08 00:49:48.818 


 frog (c-8-254.local) : TURBOMOLE V7.1 ( ) 5 Apr 2016 at 11:29:09
 Copyright (C) 2016 TURBOMOLE GmbH, Karlsruhe


    2018-03-08 00:49:48.819 

 
       `--._            A b     I n i t i o           .-
            `.  M o l e c u l a r   D y n a m i c s  /
              \               .-.       .           / 
               \             /   \     / `.        /  
                `-----._    /     `._.'    `--.__.'   
                        `--'                          
 
 

Reading information from mdmaster                                                                        
 
 =========================================
 TDDFT-SURFACE HOPPING switched on
 Tapavicza, Meyer, and Furche,
 Phys. Chem. Chem. Phys. 13 (2011), 20986.
 =========================================
 
 found keyword $gap_threshold; hop is enforced if gap <  0.500000000000000     
Reading log history information from mdmaster                                                                        
Reading input data from mdlog.3                                                                         
Checking for non-default isotopic masses in control                                                                         
 
No constraints requested.
Reading status from mdmaster                                                                        
Reading actions from mdmaster                                                                        
Getting gradients from control                                                                         
 non-adiabatic coupling vector
 -6.633461242739200E-003 -0.121210062293210       2.820257797062800E-002
 -2.845977760490100E-002 -2.775995820024400E-002 -4.083220838946000E-002
 -2.007114794522300E-002 -1.637201462457600E-002  7.449682258956800E-002
 -5.411441055183500E-003 -1.374359308195300E-002  2.256089361566500E-002
  2.831443599645100E-004  0.111897940789730      -8.975064869457300E-002
 -5.790792507961300E-003  3.382875995270400E-002 -3.234431622369800E-002
  1.024011918362500E-002  3.984465027276500E-002 -1.407590862443100E-002
  2.653493759356300E-003 -1.948243080010100E-002  3.805744988345800E-003
  2.914228828455200E-002  7.816531402411700E-002  3.234956323797100E-002
 leap: Read last 2 entries of RUN.dat
 Old state:           0
 New state:           0
 Propagating Coefficients
 
 ==============Surface Hopping Information================
 
 Probability from           1 to           2 :  3.704050477527429E-003
 Random number   0.728592177820547     
 
 COEFF OF STATE           1 = (0.950286336192109,-9.965962651893205E-002)
 COEFF OF STATE           2 = (-0.288804066377496,6.013359570230542E-002)
 
 POPULATION OF STATE           1 =  0.912976161911316     
 POPULATION OF STATE           2 =  8.702383808826525E-002
 SUM OF ALL POPULATIONS =  0.999999999999581     
 
 =========================================================
 
Scaling KE by    1.01172718151    
 
Generating $log data for last completed MD step:                                
t=   21120.0000000                                                              
-0.116192802527     -0.160151349820     -0.261869782153     ti                  
 0.895701525828      -2.12534807813       2.31637576691     o                   
 -3.17240628855     -0.542126351018      -1.79179334547     o                   
 -3.53659882711      -1.88901937391      -2.90975465916     h                   
-0.409216448609       2.51048382308       1.55117306335     o                   
 0.854363924880E-01   3.86086683632       2.77821687175     h                   
  2.83915044436      0.670907833781      -1.26919995131     o                   
  3.99452418699      0.287089745578      -2.60609226885     h                   
  2.54607076715      -2.80569895550       2.37965217001     h                   
  40.0000000000       0.00000000000                                             
ti       -0.305459430033E-03  0.140244886274E-05  0.216070565087E-03            
o         0.823914324799E-03 -0.522002717342E-03 -0.167408776091E-03            
o        -0.168572636122E-02 -0.494887107882E-03 -0.488132437993E-03            
h        -0.307019900459E-02 -0.466749479950E-03 -0.557467019617E-02            
o         0.603373774764E-03  0.522702378267E-03 -0.595136500724E-03            
h        -0.398315926040E-03  0.950569506942E-03  0.298171325049E-02            
o         0.132125327828E-02  0.598557010823E-03  0.875459928572E-03            
h         0.129419452231E-02 -0.306263109264E-02 -0.337933332504E-02            
h        -0.179813225342E-03  0.855517922656E-03  0.166013804613E-02            
 0.196486447170      -1152.07149374       0.00000000000                         
 0.213979549535E-01 -0.168601722378E-01 -0.600727846091E-01                     
 0.247076532399E-01  0.211092909021E-01  0.491776185262E-02                     
-0.909119251701E-02 -0.432236597155E-03  0.125795186711E-02                     
 0.940594541503E-02  0.129883178294E-01  0.116632408496E-01                     
 0.167809326907E-01 -0.538768019183E-01 -0.312342495517E-01                     
 0.678376881804E-02  0.325220739888E-01  0.261153647885E-01                     
-0.494183215969E-01  0.726945305618E-03  0.458849478776E-01                     
-0.421511960277E-02 -0.105270617240E-02  0.366650098000E-02                     
-0.163516214021E-01  0.487528889959E-02 -0.219873405661E-02                     
 

   Time t=   21120.0000000     a.u. (  510.850560000     fs)

   e x e c u t i n g    M D   s t e p   (leapfrog algorithm)

   Number of MD steps left:     971
 
   Time t=   21160.0000000     a.u. (  511.818080000     fs)

 
Provisional $current data:                                                      
t=   21160.0000000                                                              
-0.128803279593     -0.159786303124     -0.252126175349     ti                  
 0.927302635598      -2.14738624369       2.30940962718     o                   
 -3.23933659967     -0.561898122810      -1.81138765430     o                   
 -3.66759736971      -1.91899942168      -3.14289767473     h                   
-0.386002100513       2.53434760254       1.52908111598     o                   
 0.635965323925E-01   3.87056979168       2.87474446099     h                   
  2.89471166735      0.694810233954      -1.23669880494     o                   
  4.04996244256      0.165501185553      -2.74445834614     h                   
  2.55311703039      -2.77572358064       2.44797232262     h                   
  40.0000000000       0.00000000000                                             
ti       -0.317105105500E-03  0.917952354013E-05  0.245014320011E-03            
o         0.794646641429E-03 -0.554175292340E-03 -0.175171681661E-03            
o        -0.168304047968E-02 -0.497184186374E-03 -0.492721673869E-03            
h        -0.329411063941E-02 -0.753883152981E-03 -0.586265215500E-02            
o         0.583751769532E-03  0.600082476189E-03 -0.555527698552E-03            
h        -0.549188670926E-03  0.243992092136E-03  0.242729844475E-02            
o         0.139715154185E-02  0.601053638882E-03  0.817279107945E-03            
h         0.139405938335E-02 -0.305748568844E-02 -0.347937586382E-02            
h         0.177186480515E-03  0.753765647257E-03  0.171798965962E-02            
 
    33 energy records for statistics read from mdlog.2                                                                         
    17 energy records for statistics read from mdlog.3                                                                         
       Total Energy (H):
              current value   -1151.87500729    
                    average   -1151.87281738    
         standard deviation   0.153841590369E-02
                      drift  -0.778872409683E-05
        jump from last step  -0.659178824208E-03
 
     Kinetic Energy (H):
              current value   0.196486447170    
                    average   0.154446601960    
         standard deviation   0.219706846886E-01
                      drift   0.170884019749E-02
 avg. quasi-temperature (K)    4644.37503922    
      number of constraints       0
 
         Pressure (GPa):
              current value    0.00000000000    
                    average    0.00000000000    
 
 
   approx integration error   0.642464606008E-01
 
Estimated integration error by reading last steps from mdlog.3                  
 
Generating $log data for last completed MD step:                                
t=   21120.0000000                                                              
-0.116192802527     -0.160151349820     -0.261869782153     ti                  
 0.895701525828      -2.12534807813       2.31637576691     o                   
 -3.17240628855     -0.542126351018      -1.79179334547     o                   
 -3.53659882711      -1.88901937391      -2.90975465916     h                   
-0.409216448609       2.51048382308       1.55117306335     o                   
 0.854363924880E-01   3.86086683632       2.77821687175     h                   
  2.83915044436      0.670907833781      -1.26919995131     o                   
  3.99452418699      0.287089745578      -2.60609226885     h                   
  2.54607076715      -2.80569895550       2.37965217001     h                   
  40.0000000000       0.00000000000                                             
ti       -0.305459430033E-03  0.140244886274E-05  0.216070565087E-03            
o         0.823914324799E-03 -0.522002717342E-03 -0.167408776091E-03            
o        -0.168572636122E-02 -0.494887107882E-03 -0.488132437993E-03            
h        -0.307019900459E-02 -0.466749479950E-03 -0.557467019617E-02            
o         0.603373774764E-03  0.522702378267E-03 -0.595136500724E-03            
h        -0.398315926040E-03  0.950569506942E-03  0.298171325049E-02            
o         0.132125327828E-02  0.598557010823E-03  0.875459928572E-03            
h         0.129419452231E-02 -0.306263109264E-02 -0.337933332504E-02            
h        -0.179813225342E-03  0.855517922656E-03  0.166013804613E-02            
 0.196486447170      -1152.07149374       0.00000000000                         
 0.213979549535E-01 -0.168601722378E-01 -0.600727846091E-01                     
 0.247076532399E-01  0.211092909021E-01  0.491776185262E-02                     
-0.909119251701E-02 -0.432236597155E-03  0.125795186711E-02                     
 0.940594541503E-02  0.129883178294E-01  0.116632408496E-01                     
 0.167809326907E-01 -0.538768019183E-01 -0.312342495517E-01                     
 0.678376881804E-02  0.325220739888E-01  0.261153647885E-01                     
-0.494183215969E-01  0.726945305618E-03  0.458849478776E-01                     
-0.421511960277E-02 -0.105270617240E-02  0.366650098000E-02                     
-0.163516214021E-01  0.487528889959E-02 -0.219873405661E-02                     
 
Generated $current data for new MD step:                                        
t=   21160.0000000                                                              
-0.128803279593     -0.159786303124     -0.252126175349     ti                  
 0.927302635598      -2.14738624369       2.30940962718     o                   
 -3.23933659967     -0.561898122810      -1.81138765430     o                   
 -3.66759736971      -1.91899942168      -3.14289767473     h                   
-0.386002100513       2.53434760254       1.52908111598     o                   
 0.635965323925E-01   3.87056979168       2.87474446099     h                   
  2.89471166735      0.694810233954      -1.23669880494     o                   
  4.04996244256      0.165501185553      -2.74445834614     h                   
  2.55311703039      -2.77572358064       2.44797232262     h                   
  40.0000000000       0.00000000000                                             
ti       -0.317105105500E-03  0.917952354013E-05  0.245014320011E-03            
o         0.794646641429E-03 -0.554175292340E-03 -0.175171681661E-03            
o        -0.168304047968E-02 -0.497184186374E-03 -0.492721673869E-03            
h        -0.329411063941E-02 -0.753883152981E-03 -0.586265215500E-02            
o         0.583751769532E-03  0.600082476189E-03 -0.555527698552E-03            
h        -0.549188670926E-03  0.243992092136E-03  0.242729844475E-02            
o         0.139715154185E-02  0.601053638882E-03  0.817279107945E-03            
h         0.139405938335E-02 -0.305748568844E-02 -0.347937586382E-02            
h         0.177186480515E-03  0.753765647257E-03  0.171798965962E-02            
 
Logging MD run data ($log) to file mdlog.3                                                                         
Writing data for next step ($current) to mdlog.3                                                                         

    2018-03-08 00:49:49.589 

         total cpu-time :   0.77 seconds
         total wall-time :   0.77 seconds

          ******************************************************



    ------------------------------------------------------------------------
         total  cpu-time :   0.77 seconds
         total wall-time :   0.77 seconds
    ------------------------------------------------------------------------

   ****  frog : all done  ****


    2018-03-08 00:49:49.589 

 operating system is UNIX !
 hostname is c-8-254.local

 ridft (c-8-254.local) : TURBOMOLE V7.1 ( ) 5 Apr 2016 at 11:29:09
 Copyright (C) 2016 TURBOMOLE GmbH, Karlsruhe


    2018-03-08 00:49:49.762 



                                  r i d f t

                        DFT program with RI approximation 
                                for coulomb part 




                                                 
                                 References:     
                                                 
          TURBOMOLE:                             
              R. Ahlrichs, M. Baer, M. Haeser, H. Horn, and
              C. Koelmel
              Electronic structure calculations on workstation
              computers: the program system TURBOMOLE
              Chem. Phys. Lett. 162: 165 (1989)
          Density Functional:                              
              O. Treutler and R. Ahlrichs                      
              Efficient Molecular Numerical Integration Schemes
              J. Chem. Phys. 102: 346 (1995)                   
          Parallel Version:                                
              Performance of parallel TURBOMOLE for Density    
              Functional Calculations                          
              M. v. Arnim and R. Ahlrichs                      
              J. Comp. Chem. 19: 1746 (1998)                   
          RI-J Method:                                     
              Auxiliary Basis Sets to approximate Coulomb      
              Potentials                                       
              Chem. Phys. Lett. 240: 283 (1995)                
              K. Eichkorn, O. Treutler, H. Oehm, M. Haeser     
              and R. Ahlrichs                                  
              Chem. Phys. Lett. 242: 652 (1995)                
                                                           
              Auxiliary Basis Sets for Main Row Atoms and their
              Use to approximate Coulomb Potentials            
              K. Eichkorn, F. Weigend, O. Treutler and         
              R. Ahlrichs                                      
              Theo. Chem. Acc. 97: 119 (1997)                   
                                                           
              Accurate Coulomb-fitting basis sets for H to Rn 
              F. Weigend                                        
              Phys. Chem. Chem. Phys. 8: 1057 (2006)            
                                                           
          Multipole accelerated RI-J (MARI-J):             
              Fast evaluation of the Coulomb potential for     
              electron densities using multipole accelerated   
              resolution of identity approximation             
              M. Sierka, A. Hogekamp and R. Ahlrichs           
              J. Chem. Phys. 118: 9136 (2003)                  
          RI-JK Method:                                     
              A fully direct RI-HF algorithm: Implementation,
              optimised auxiliary basis sets, demonstration of
              accuracy and efficiency                         
              F. Weigend                                      
              Phys. Chem. Chem. Phys. 4: 4285 (2002)           
          Two-component HF and DFT with spin-orbit coupling:  
              Self-consistent treatment of spin-orbit         
              interactions with efficient Hartree-Fock and    
              density functional methods                      
              M. K. Armbruster, F. Weigend, C. van Wüllen and 
              W. Klopper                                      
              Phys. Chem. Chem. Phys. 10: 1748 (2008)         
          Relativistic all-electron 2c calculations           
              An efficient implementation of two-component    
              relativistic exact-decoupling methods for large 
              molecules                                       
              D. Peng, N. Middendorf, F. Weigend, M. Reiher   
              J. Chem. Phys. 138, 184105 (2013)               
                                         


 


              +--------------------------------------------------+
              |      general information about current run       |
              +--------------------------------------------------+

 

 DENSITY CONVERGENCE CHECK SWITCHED ON !
 SCF CONVERGENCE IF RMS(delta[D]) <     0.1000000000E-06

 PBE0 hybrid functional
 exchange:    3/4 (LDA+PBE) + 1/4 HF
 correlation: LDA (PW) + PBE
 A Hybrid-DFT calculation using the RI-J approximation will be carried out.
 Allocatable memory for RI due to $ricore (MB):         500


              +--------------------------------------------------+
              | Atomic coordinate, charge and isotop information |
              +--------------------------------------------------+

                    atomic coordinates            atom    charge  isotop
         -0.12880328   -0.15978630   -0.25212618    ti    22.000     0
          0.92730264   -2.14738624    2.30940963    o      8.000     0
         -3.23933660   -0.56189812   -1.81138765    o      8.000     0
         -3.66759737   -1.91899942   -3.14289767    h      1.000     0
         -0.38600210    2.53434760    1.52908112    o      8.000     0
          0.06359653    3.87056979    2.87474446    h      1.000     0
          2.89471167    0.69481023   -1.23669880    o      8.000     0
          4.04996244    0.16550119   -2.74445835    h      1.000     0
          2.55311703   -2.77572358    2.44797232    h      1.000     0
 
       center of nuclear mass  :   -0.00000004   -0.00000002    0.00000010
       center of nuclear charge:    0.02997951   -0.00025798    0.00365205

              +--------------------------------------------------+
              |               basis set information              |
              +--------------------------------------------------+

              we will work with the 1s 3p 5d 7f 9g ... basis set
              ...i.e. with spherical basis functions...

   type   atoms  prim   cont   basis
   ---------------------------------------------------------------------------
    ti       1     73     31   def2-SVP   [5s3p2d1f|14s9p5d1f]
    o        4     24     14   def2-SVP   [3s2p1d|7s4p1d]
    h        4      7      5   def2-SVP   [2s1p|4s1p]
   ---------------------------------------------------------------------------
   total:    9    197    107
   ---------------------------------------------------------------------------

   total number of primitive shells          :   46
   total number of contracted shells         :   47
   total number of cartesian basis functions :  116
   total number of SCF-basis functions       :  107


 integral neglect threshold       :  0.29E-10
 integral storage threshold THIZE :  0.10E-04
 integral storage threshold THIME :         5

 RI-J AUXILIARY BASIS SET information:

              we will work with the 1s 3p 5d 7f 9g ... basis set
              ...i.e. with spherical basis functions...

   type   atoms  prim   cont   basis
   ---------------------------------------------------------------------------
    ti       1    107     89   def2-SVP   [8s5p5d2f3g|19s5p5d3f3g]
    o        4     70     49   def2-SVP   [6s4p3d1f1g|12s5p4d2f1g]
    h        4     16     11   def2-SVP   [3s1p1d|5s2p1d]
   ---------------------------------------------------------------------------
   total:    9    451    329
   ---------------------------------------------------------------------------

   total number of primitive shells          :   67
   total number of contracted shells         :  103
   total number of cartesian basis functions :  410
   total number of SCF-basis functions       :  329


 symmetry group of the molecule :   c1 

 the group has the following generators :
   c1(z)

    1 symmetry operations found

 there are 1 real representations :   a   

 maximum number of shells which are related by symmetry :  1


    mo occupation :
   irrep   mo's   occupied
    a      107       29
 
 number of basis functions   :          107
 number of occupied orbitals :           29
 
  
           ------------------
           density functional
           ------------------
 PBE0 hybrid functional
 exchange:    3/4 (LDA+PBE) + 1/4 HF
 correlation: LDA (PW) + PBE
 iterations will be done with small grid
  
 spherical integration : Lebedev's spherical grid
 spherical gridsize    :           3
    i.e. gridpoints    :         302
 value for diffuse not defined
 radial integration    : Chebyshev 2nd kind (scaling 3)
 radial gridsize       :           3
 integration cells     :           9
 partition function    : becke
 partition sharpness   :           3
  

 biggest AO integral is expected to be    13.493451081
  
           ------------------------
               RI-J - INFORMATION
           ------------------------
 Contributions to RI integral batches: 
  neglected integral batches:          52
  direct contribution:                  0
  memory contribution:        1076
 Memory core needed for (P|Q) and Cholesky      1 MByte
 Memory core minimum needed except of (P|Q)     1 MByte
 Total minimum memory core needed (sum)         1 MByte
  
 ****************************************
 Memory allocated for RI-J    22 MByte
 ****************************************
                                            

          ------------------------
          nuclear repulsion energy  :   332.178272325    
          ------------------------

 
          -----------------
          -S,T+V- integrals
          -----------------

 1e-integrals will be neglected if expon. factor < 0.288100E-11
 
   Difference densities algorithm switched on.
   The maximal number of linear combinations of
   difference densities is          20 .

 DIIS switched on: error vector is FDS-SDF
 Max. Iterations for DIIS is     :   4
 DIIS matrix (see manual) 
    Scaling factor of diagonals  :  1.200
    threshold for scaling factor :  0.000

 scf convergence criterion : increment of total energy < .1000000D-06
                  and increment of one-electron energy < .1000000D-03

  MOs are in ASCII format !


 automatic virtual orbital shift switched on 
      shift if e(lumo)-e(homo) < 0.10000000    


 reading orbital data $scfmo  from file mos
 orbital characterization : scfconv=7

 DSCF restart information will be dumped onto file mos


 Starting SCF iterations

          Overall gridpoints after grid construction =         13483

 ITERATION  ENERGY          1e-ENERGY        2e-ENERGY     RMS[dD(SAO)]   TOL
   1  -1152.0528209037    -2244.1460805     759.91498730    0.000D+00 0.287D-10
                            Exc = -58.6087606353     Coul =  837.338409329    
                            exK = -18.8146613935    
                              N = 58.001274673    
                            current damping = 0.700
 
          max. resid. norm for Fia-block=  3.013D-02 for orbital     14a         
          max. resid. fock norm         =  1.188D-01 for orbital    104a         

 ITERATION  ENERGY          1e-ENERGY        2e-ENERGY     RMS[dD(SAO)]   TOL
   2  -1152.0590376160    -2244.0608723     759.82356237    0.144D-02 0.182D-10
                            Exc = -58.5806403595      Eck =  818.404202731    
                              N = 58.001274668    
                            current damping = 0.650
 
          Norm of current diis error: 0.79669E-01
          max. resid. norm for Fia-block=  1.356D-02 for orbital     17a         
          max. resid. fock norm         =  5.507D-02 for orbital    105a         

 ITERATION  ENERGY          1e-ENERGY        2e-ENERGY     RMS[dD(SAO)]   TOL
   3  -1152.0601461090    -2243.7903959     759.55197745    0.769D-03 0.144D-10
                            Exc = -58.5920132902      Eck =  818.143990740    
                              N = 58.001285279    
                            current damping = 0.500
 
          Norm of current diis error: 0.62666E-01
          max. resid. norm for Fia-block=  6.616D-03 for orbital     18a         
          max. resid. fock norm         =  2.070D-02 for orbital    104a         

 ITERATION  ENERGY          1e-ENERGY        2e-ENERGY     RMS[dD(SAO)]   TOL
   4  -1152.0607716915    -2244.0323856     759.79334162    0.437D-03 0.131D-10
                            Exc = -58.5842981164      Eck =  818.377639735    
                              N = 58.001279906    
                            current damping = 0.550
 
          Norm of current diis error: 0.20210E-01
          max. resid. norm for Fia-block=  2.271D-03 for orbital     21a         
          max. resid. fock norm         =  6.891D-03 for orbital    104a         

 ITERATION  ENERGY          1e-ENERGY        2e-ENERGY     RMS[dD(SAO)]   TOL
   5  -1152.0608347368    -2243.8921362     759.65302910    0.186D-03 0.126D-10
                            Exc = -58.5841934367      Eck =  818.237222533    
                              N = 58.001284917    
                            current damping = 0.600
 
          Norm of current diis error: 0.12817E-01
          max. resid. norm for Fia-block=  8.762D-04 for orbital     28a         
          max. resid. fock norm         =  2.643D-03 for orbital    105a         
          mo-orthogonalization: Cholesky decomposition

 ITERATION  ENERGY          1e-ENERGY        2e-ENERGY     RMS[dD(SAO)]   TOL
   6  -1152.0608608192    -2243.9136461     759.67451295    0.723D-04 0.121D-10
                            Exc = -58.5834427461      Eck =  818.257955700    
                              N = 58.001283632    
                            current damping = 0.650
 
          Norm of current diis error: 0.28358E-02
          max. resid. norm for Fia-block=  3.275D-04 for orbital     17a         
          max. resid. fock norm         =  9.717D-04 for orbital    104a         

 ITERATION  ENERGY          1e-ENERGY        2e-ENERGY     RMS[dD(SAO)]   TOL
   7  -1152.0608628246    -2243.9312415     759.69210637    0.259D-04 0.117D-10
                            Exc = -58.5840159648      Eck =  818.276122333    
                              N = 58.001283886    
                            current damping = 0.500
 
          Norm of current diis error: 0.10467E-02
          max. resid. norm for Fia-block=  1.553D-04 for orbital     21a         
          max. resid. fock norm         =  3.625D-04 for orbital    104a         

 ITERATION  ENERGY          1e-ENERGY        2e-ENERGY     RMS[dD(SAO)]   TOL
   8  -1152.0608631290    -2243.9289412     759.68980573    0.131D-04 0.113D-10
                            Exc = -58.5836079704      Eck =  818.273413702    
                              N = 58.001283742    
                            current damping = 0.550
 
          Norm of current diis error: 0.78705E-03
          max. resid. norm for Fia-block=  7.669D-05 for orbital     22a         
          max. resid. fock norm         =  1.369D-04 for orbital    105a         

 ITERATION  ENERGY          1e-ENERGY        2e-ENERGY     RMS[dD(SAO)]   TOL
   9  -1152.0608632171    -2243.9255707     759.68643520    0.617D-05 0.111D-10
                            Exc = -58.5837516107      Eck =  818.270186807    
                              N = 58.001283907    
                            current damping = 0.400
 
          Norm of current diis error: 0.45930E-03
          max. resid. norm for Fia-block=  3.551D-05 for orbital     22a         
          max. resid. fock norm         =  4.989D-05 for orbital     31a         

 ITERATION  ENERGY          1e-ENERGY        2e-ENERGY     RMS[dD(SAO)]   TOL
  10  -1152.0608632576    -2243.9284907     759.68935509    0.347D-05 0.107D-10
                            Exc = -58.5837771645      Eck =  818.273132252    
                              N = 58.001283913    
                            current damping = 0.450
 
          Norm of current diis error: 0.81459E-04
          max. resid. norm for Fia-block=  1.177D-05 for orbital     28a         
          max. resid. fock norm         =  1.548D-05 for orbital    105a         
          mo-orthogonalization: Cholesky decomposition

 ENERGY & DENSITY CONVERGED !

          Overall gridpoints after grid construction =         48560

 ITERATION  ENERGY          1e-ENERGY        2e-ENERGY     RMS[dD(SAO)]   TOL
  11  -1152.0599345382    -2243.9284568     759.69024996    0.113D-05 0.105D-10
                            Exc = -58.5828447529      Eck =  818.273094714    
                              N = 58.000010905    
                            current damping = 0.500
 
          Norm of current diis error: 0.53103E-04
          max. resid. norm for Fia-block=  4.494D-06 for orbital     21a         
          max. resid. fock norm         =  6.820D-06 for orbital     27a         

 End of SCF iterations

   convergence criteria satisfied after   11 iterations


                  ------------------------------------------ 
                 |  total energy      =  -1152.05993453816  |
                  ------------------------------------------ 
                 :  kinetic energy    =   1148.58792528008  :
                 :  potential energy  =  -2300.64785981824  :
                 :  virial theorem    =      1.99698625987  :
                 :  wavefunction norm =      1.00000000000  :
                  .......................................... 


 orbitals $scfmo  will be written to file mos

    irrep                 25a         26a         27a         28a         29a   
 eigenvalues H         -0.32481    -0.32001    -0.30108    -0.29353    -0.28849
            eV          -8.8385     -8.7079     -8.1928     -7.9875     -7.8504
 occupation              2.0000      2.0000      2.0000      2.0000      2.0000 

    irrep                 30a         31a         32a         33a         34a   
 eigenvalues H         -0.02797    -0.02543    -0.01305     0.01025     0.01562
            eV          -0.7610     -0.6921     -0.3551      0.2790      0.4249
 
 
 
 
 ==============================================================================
                           electrostatic moments
 ==============================================================================

 reference point for electrostatic moments:    0.00000   0.00000   0.00000

 
              nuc           elec       ->  total
 ------------------------------------------------------------------------------
                          charge      
 ------------------------------------------------------------------------------
          58.000000     -58.000000       0.000000
 
 ------------------------------------------------------------------------------
                       dipole moment  
 ------------------------------------------------------------------------------
   x       1.738811      -0.739072       0.999740
   y      -0.014963      -0.453050      -0.468013
   z       0.211819      -1.043110      -0.831290
 
   | dipole moment | =     1.3819 a.u. =     3.5124 debye 
 
 ------------------------------------------------------------------------------
                     quadrupole moment
 ------------------------------------------------------------------------------
  xx     195.793264    -223.990562     -28.197298
  yy     121.619008    -147.043505     -25.424497
  zz     132.921157    -157.100583     -24.179425
  xy       8.215877      -8.617999      -0.402122
  xz      38.271964     -38.658340      -0.386375
  yz       3.391895       1.974640       5.366534
 
     1/3  trace=     -25.933740
     anisotropy=      10.001150
 
 ==============================================================================
 


    ------------------------------------------------------------------------
         total  cpu-time :  10.72 seconds
         total wall-time :  10.90 seconds
    ------------------------------------------------------------------------

   ****  ridft : all done  ****


    2018-03-08 00:50:00.537 

fine, there is no data group "$actual step"
next step = rdgrad
 hostname is c-8-254.local
           Doing BLAS/Lapack in the master proc. with  8 CPUs.
           SMPCPUS    set: Shared-memory Parallelization with   8 CPUs.

           SMP Parallelization Reference:
           C. van Wullen, J. Comput. Chem. 32 (2011) 1195--1201

 egrad (c-8-254.local) : TURBOMOLE V7.1 ( ) 5 Apr 2016 at 11:29:09
 Copyright (C) 2016 TURBOMOLE GmbH, Karlsruhe


    2018-03-08 00:50:00.792 




                               e g r a d

                       quantum chemistry group
                       university of karlsruhe
                               germany


             integral direct evaluation of excited state
                     and polarizability gradients
                 and first-order nonadiabatic couplings



          references (see also programs escf, dscf and ridft) 

          review 
          F. Furche and D. Rappoport,  
          "Density functional methods for excited states: 
          equilibrium structure and electronic spectra",
          ch. III of "Computational Photochemistry", ed. by 
          M. Olivucci, vol. 16 of "Theoretical and Computational 
          Chemistry", Elsevier, Amsterdam, 2005.

          RI-J method 
          D. Rappoport and F. Furche, 
          J. Chem. Phys. 122 (2005), 064105.

          Lagrangian method, implementation, benchmarks 
          F. Furche and R. Ahlrichs,
          J. Chem. Phys. 117 (2002), 7433;
          J. Chem. Phys. 121 (2004), 12772 (E).

          Polarizability derivatives, Raman intensities 
          D. Rappoport and F. Furche, 
          J. Chem. Phys. 126 (2007), 201104.

          First-order nonadiabatic couplings 
          R. Send and F. Furche, 
          J. Chem. Phys. 132 (2010), 044107.
                                     




              +--------------------------------------------------+
              | Atomic coordinate, charge and isotop information |
              +--------------------------------------------------+

                    atomic coordinates            atom    charge  isotop
         -0.12880328   -0.15978630   -0.25212618    ti    22.000     0
          0.92730264   -2.14738624    2.30940963    o      8.000     0
         -3.23933660   -0.56189812   -1.81138765    o      8.000     0
         -3.66759737   -1.91899942   -3.14289767    h      1.000     0
         -0.38600210    2.53434760    1.52908112    o      8.000     0
          0.06359653    3.87056979    2.87474446    h      1.000     0
          2.89471167    0.69481023   -1.23669880    o      8.000     0
          4.04996244    0.16550119   -2.74445835    h      1.000     0
          2.55311703   -2.77572358    2.44797232    h      1.000     0
 
       center of nuclear mass  :   -0.00000004   -0.00000002    0.00000010
       center of nuclear charge:    0.02997951   -0.00025798    0.00365205

              +--------------------------------------------------+
              |               basis set information              |
              +--------------------------------------------------+

              we will work with the 1s 3p 5d 7f 9g ... basis set
              ...i.e. with spherical basis functions...

   type   atoms  prim   cont   basis
   ---------------------------------------------------------------------------
    ti       1     73     31   def2-SVP   [5s3p2d1f|14s9p5d1f]
    o        4     24     14   def2-SVP   [3s2p1d|7s4p1d]
    h        4      7      5   def2-SVP   [2s1p|4s1p]
   ---------------------------------------------------------------------------
   total:    9    197    107
   ---------------------------------------------------------------------------

   total number of primitive shells          :   46
   total number of contracted shells         :   47
   total number of cartesian basis functions :  116
   total number of SCF-basis functions       :  107


 residuum convergence criterium   :  0.10E-04


 integral neglect threshold       :  0.29E-10
 integral storage threshold THIZE :  0.10E-04
 integral storage threshold THIME :         5

 
             FOUND RI-J FLAG !
 
  
 AUXILIARY BASIS SET information:

              we will work with the 1s 3p 5d 7f 9g ... basis set
              ...i.e. with spherical basis functions...

   type   atoms  prim   cont   basis
   ---------------------------------------------------------------------------
    ti       1    107     89   def2-SVP   [8s5p5d2f3g|19s5p5d3f3g]
    o        4     70     49   def2-SVP   [6s4p3d1f1g|12s5p4d2f1g]
    h        4     16     11   def2-SVP   [3s1p1d|5s2p1d]
   ---------------------------------------------------------------------------
   total:    9    451    329
   ---------------------------------------------------------------------------

   total number of primitive shells          :   67
   total number of contracted shells         :  103
   total number of cartesian basis functions :  410
   total number of SCF-basis functions       :  329

 RPA SINGLET-EXCITATION-CALCULATION 
 
             FOUND DFT-FLAG !
 
 
 FOUND Nonadiabatic Coupling-FLAG !
 Note: the sign convention for NACME changed
 such that <0|d/dx|n> is now computed.

 symmetry group of the molecule :   c1 

 the group has the following generators :
   c1(z)

    1 symmetry operations found

 there are 1 real representations :   a   

 maximum number of shells which are related by symmetry :  1

 IRREP of excited state :   a   
 

 determining totally symmetric integral contributions 
    - equivalent to irreducible tensor elements - 
 which can be formed within each triple of representations :

             representation triple      contributions

              a     a     a               1

    mo occupation :
   irrep   mo's   occupied
    a      107       29
 
 number of basis functions   :          107
 number of occupied orbitals :           29
 
  
           ------------------
           density functional
           ------------------
 PBE0 hybrid functional
 exchange:    3/4 (LDA+PBE) + 1/4 HF
 correlation: LDA (PW) + PBE
 iterations will be done with small grid
  
 spherical integration : Lebedev's spherical grid
 spherical gridsize    :           3
    i.e. gridpoints    :         302
 value for diffuse not defined
 radial integration    : Chebyshev 2nd kind (scaling 3)
 radial gridsize       :           3
 integration cells     :           9
 partition function    : becke
 partition sharpness   :           3
  
 
 Derivatives of quadrature weights will be included
 
  
           ----------------------
               RI - INFORMATION
           ----------------------

 biggest AO integral is expected to be    13.493451081

 Threshold for integral neglect (rithr2):   0.29E-10
 Threshold for integral neglect (rithr1):   0.29E-10

 Contributions to RI integral batches: 
  neglected integral batches:          47
  direct contribution:                  0
  memory contribution:        1081
 Core memory available (ricore)            500 MiB
 Core memory needed for (P|Q) and Cholesky 1 MiB
 Core memory used for integrals            21 MiB
  
 ****************************************
 Memory allocated for RIDFT 22 MiB
 ****************************************
                                            
  MOs are in ASCII format !


 reading orbital data $scfmo  from file mos
 orbital characterization : scfconv=7
 preparing numerical integration ....
          Overall gridpoints after grid construction =         13483
 Ordering of quadrature gridpoints disabled.

 Calculating ground state density on molecular grid

 Integral of ground state density: N =   58.00128390809178    



 number of non-frozen orbitals          :   107
 number of non-frozen occupied orbitals :    29



                        -------------------
                         excitation vector 
                        -------------------


 dimension of super-tensorspace: 2

          IRREP   tensor space dimension   number of roots

           a              2262                   1

 maximum number of Davidson iterations set to   25


 machine precision: 2.22D-16


 logfile sing_a    exists already

 found      1 converged vectors on sing_a   
 read       1 vectors from logfile sing_a   



                       Nonorthonormal Krylov Space Iteration


 total number of roots to be determined:   1


 maximum core memory set to   500 MB,
 corresponding to     2317 vectors in CAO basis


 maximum number of simultaneously treated vectors (including degeneracy):        1


 Iteration IRREP Converged      Max. Euclidean
                 roots          residual norm

    1       a        0        1.174184150544479D-01
 
    2       a        0        4.642529485106958D-02
 
    3       a        0        3.821118552234911D-02
 
    4       a        0        2.643289351374757D-02
 
    5       a        0        2.217085538306511D-02
 
    6       a        0        2.261255102160252D-02
 
    7       a        0        1.866555739633942D-02
 
    8       a        0        1.594474859788356D-02
 
    9       a        0        1.261097706894093D-02
 
   10       a        0        1.194290955590097D-02
 
   11       a        0        1.037497161154335D-02
 
   12       a        0        9.143972815763853D-03
 
   13       a        0        1.208129976890863D-02
 
   14       a        0        1.682053526010517D-02
 
   15       a        0        2.031313890126579D-02
 
   16       a        0        1.402411873365695D-02
 
   17       a        0        8.575690906071467D-03
 
   18       a        0        6.508655492636226D-03
 
   19       a        0        3.544112685174934D-03
 
   20       a        0        1.439297888279720D-03
 
   21       a        0        7.245079536796956D-04
 
   22       a        0        2.751854068479433D-04
 
   23       a        0        1.296508045943829D-04
 
   24       a        0        5.720726987427624D-05
 
   25       a        0        4.872463429950169D-05
 


 Warning! No convergence within  25 iterations.
 Unless you have specified a very low $escfiterlimit/$forceiterlimit, 
 this is a reason to worry!



 IRREP   Vector     Eigenvalue           Euclidean residual norm

  a         1    1.937373172676152D-01    4.872463429950169D-05
 

 Deallocation failure for file unit arrays in <egrad>


========================
 internal module stack: 
------------------------
    egrad
========================

  abnormal termination
 egrad ended abnormally
error in gradient step (1)
