
OPTIMIZATION CYCLE 1
Wed Mar  7 14:57:26 PST 2018
 hostname is c-3-343.local

 frog (c-3-343.local) : TURBOMOLE V7.1 ( ) 5 Apr 2016 at 11:29:09
 Copyright (C) 2016 TURBOMOLE GmbH, Karlsruhe


    2018-03-07 14:57:26.769 


 frog (c-3-343.local) : TURBOMOLE V7.1 ( ) 5 Apr 2016 at 11:29:09
 Copyright (C) 2016 TURBOMOLE GmbH, Karlsruhe


    2018-03-07 14:57:26.773 

 
       `--._            A b     I n i t i o           .-
            `.  M o l e c u l a r   D y n a m i c s  /
              \               .-.       .           / 
               \             /   \     / `.        /  
                `-----._    /     `._.'    `--.__.'   
                        `--'                          
 
 

Reading information from mdmaster                                                                        
 
 =========================================
 TDDFT-SURFACE HOPPING switched on
 Tapavicza, Meyer, and Furche,
 Phys. Chem. Chem. Phys. 13 (2011), 20986.
 =========================================
 
 found keyword $gap_threshold; hop is enforced if gap <  0.500000000000000     
Reading log history information from mdmaster                                                                        
Reading input data from mdlog.1                                                                         
Checking for non-default isotopic masses in control                                                                         
 
No constraints requested.
Reading status from mdmaster                                                                        
Reading actions from mdmaster                                                                        
Getting gradients from control                                                                         
 non-adiabatic coupling vector
  1.101527362506800E-002  3.809325046730400E-002 -1.226689390023600E-002
 -5.598122241940900E-002  1.842184218419500E-002  7.680131034875599E-002
  7.161565026449300E-002 -7.248644187587600E-002 -9.225020730058900E-002
 -2.028126922691000E-002  1.728223646985100E-002  4.045555110149600E-002
  1.728772307989800E-002  2.802793047306100E-003  3.659068352006000E-002
 -2.891230390757100E-002  1.900973691791600E-002 -3.766483107938500E-002
  4.478829433415000E-002 -7.068204928547001E-002  6.704720691110599E-002
 -4.657005696617700E-002  5.298323515197400E-002 -4.210767158355200E-002
  1.006972590881200E-002 -3.578290858670800E-003 -2.291074485925900E-002

 <getgrd> : expected no more than    0 lines 
 of input for data group $ex_energies 

 Propagating Coefficients

 <getgrd> : data group $nac_matrix  is missing 

  !initialize coefficients (t=0-delta/2)

 <getgrd> : data group $sh_coeffs  is missing 


 <getgrd> : data group $integral_ex  is missing 


 <getgrd> : data group $integral_ex  is missing 

 
 ==============Surface Hopping Information================
 
 Probability from           2 to           1 :                     NaN
 Random number   7.879143939226493E-002
 
 
 Excitation energy < Threshold.
 Hop to ground state is enforced.
 Switching coefficients.
 COEFF OF STATE           1 = (0.000000000000000E+000,1.630416631276114E-322)
 
 POPULATION OF STATE           1 =  0.000000000000000E+000
 SUM OF ALL POPULATIONS =  0.000000000000000E+000
 
 
 Surface Hop from State           1
 
 =========================================================
 
error in MD step
