
OPTIMIZATION CYCLE 800
Thu Mar  8 02:17:48 PST 2018
 hostname is c-6-30.local

 frog (c-6-30.local) : TURBOMOLE V7.1 ( ) 5 Apr 2016 at 11:29:09
 Copyright (C) 2016 TURBOMOLE GmbH, Karlsruhe


    2018-03-08 02:17:48.456 


 frog (c-6-30.local) : TURBOMOLE V7.1 ( ) 5 Apr 2016 at 11:29:09
 Copyright (C) 2016 TURBOMOLE GmbH, Karlsruhe


    2018-03-08 02:17:48.456 

 
       `--._            A b     I n i t i o           .-
            `.  M o l e c u l a r   D y n a m i c s  /
              \               .-.       .           / 
               \             /   \     / `.        /  
                `-----._    /     `._.'    `--.__.'   
                        `--'                          
 
 

Reading information from mdmaster                                                                        
 
 =========================================
 TDDFT-SURFACE HOPPING switched on
 Tapavicza, Meyer, and Furche,
 Phys. Chem. Chem. Phys. 13 (2011), 20986.
 =========================================
 
 found keyword $gap_threshold; hop is enforced if gap <  0.500000000000000     
Reading log history information from mdmaster                                                                        
Reading input data from mdlog.4                                                                         
Checking for non-default isotopic masses in control                                                                         
 
No constraints requested.
Reading status from mdmaster                                                                        
Reading actions from mdmaster                                                                        
Getting gradients from control                                                                         
 non-adiabatic coupling vector
  8.450172892318700E-005  7.356476178654700E-003 -2.453514657725000E-002
  1.546615699339100E-002 -5.385671332791200E-002 -4.499146622549100E-002
  1.287843187531900E-002  1.119527086708400E-003  9.295138910442801E-003
 -1.241440373576800E-004 -3.061420901084800E-004 -3.121151057836400E-003
 -4.485857639921600E-002 -2.150575727519400E-002 -2.935323139161300E-002
 -4.695948614536400E-003 -6.538209027322800E-003  1.042339743345900E-002
  1.879727942319400E-002 -2.942443038237600E-002 -5.543612721168500E-002
  4.565090192071600E-003 -6.724934789860200E-003  7.403581496147100E-003
 -2.689471696930100E-004  1.553923233294000E-002  9.218466459059700E-004
 leap: Read last 2 entries of RUN.dat
 Old state:           0
 New state:           0
 Propagating Coefficients
 
 ==============Surface Hopping Information================
 
 Probability from           1 to           2 : -2.549306923915551E-002
 Random number   0.536950547546518     
 
 COEFF OF STATE           1 = (-1.481616641318900E-002,-5.370259337312328E-002)
 COEFF OF STATE           2 = (0.998444001278736,2.467587585605284E-003)
 
 POPULATION OF STATE           1 =  3.103487322182334E-003
 POPULATION OF STATE           2 =  0.996896512677985     
 SUM OF ALL POPULATIONS =   1.00000000000017     
 
 =========================================================
 
Scaling KE by    1.01972188770    
 
Generating $log data for last completed MD step:                                
t=   31960.0000000                                                              
 0.138076648040     -0.102153666717      0.135241305379     ti                  
  1.34342672192      -2.06197518390       2.09802023671     o                   
 -2.74316710860     -0.994971873877      -1.87643434667     o                   
 -2.29506199901     -0.790586710201      -3.54026937945     h                   
 -1.36095202950       2.55614132494       1.80943013968     o                   
 -1.89814206985       3.03740927917       3.46001506307     h                   
  2.60329394737      0.614939278156      -2.19865922108     o                   
  4.36629604366      0.331533565901      -2.44028386760     h                   
 -4.23629549377      0.464493293164      -1.24531595430     h                   
  40.0000000000       0.00000000000                                             
ti       -0.599505983975E-04 -0.866086455845E-04 -0.574069910565E-04            
o         0.150700348504E-03 -0.234114461910E-03  0.460522331012E-04            
o        -0.841647790467E-04  0.470965307570E-03  0.361181315729E-03            
h        -0.120414837573E-02  0.414974340602E-03  0.163845554528E-03            
o        -0.346922602601E-03  0.254924107382E-03 -0.260229239967E-04            
h        -0.138795545382E-03  0.362782795005E-03 -0.111454131412E-04            
o        -0.257871250469E-04 -0.421675919958E-04 -0.597168293546E-04            
h         0.500051166135E-04  0.764213496347E-03 -0.268982816787E-03            
h         0.900173622600E-02 -0.456278855238E-02 -0.225870164077E-02            
 0.132401032692      -1152.04168757       0.00000000000                         
-0.774884582062E-01 -0.246151303239E-01 -0.476376195818E-01                     
 0.111735484627E-01  0.765634455640E-02  0.110941394836E-02                     
 0.120468655431     -0.345743502274E-01 -0.601197805033E-01                     
-0.506122447836E-02 -0.115207904794E-01  0.625203689174E-01                     
 0.818888495189E-02  0.137872988027E-02  0.164225322047E-01                     
-0.301192851394E-02  0.130385587298E-02 -0.660794188901E-02                     
 0.199147298447E-01 -0.599788897358E-02  0.370963373537E-02                     
-0.414586391212E-02  0.373218149453E-02 -0.284041971193E-02                     
-0.700383435773E-01  0.626370482008E-01  0.334438128859E-01                     
 

   Time t=   31960.0000000     a.u. (  773.048480000     fs)

   e x e c u t i n g    M D   s t e p   (leapfrog algorithm)

   Number of MD steps left:     700
 
   Time t=   32000.0000000     a.u. (  774.016000000     fs)

 
Provisional $current data:                                                      
t=   32000.0000000                                                              
 0.137098536150     -0.105166960592      0.133817945800     ti                  
  1.34884175437      -2.07175978986       2.09980146352     o                   
 -2.75314261686     -0.974236510810      -1.85868891956     o                   
 -2.33882068156     -0.763955572901      -3.58815753112     h                   
 -1.37527817629       2.56626265204       1.80748828170     o                   
 -1.90107114109       3.05078520920       3.46532336166     h                   
  2.60116993919      0.613581618997      -2.20125140497     o                   
  4.37190641600      0.358852167681      -2.44856977747     h                   
 -3.81523751034      0.227438174322      -1.36478648383     h                   
  40.0000000000       0.00000000000                                             
ti       -0.246927476264E-04 -0.760715680037E-04 -0.359331679789E-04            
o         0.136704226886E-03 -0.247015508177E-03  0.449676408263E-04            
o        -0.251834897691E-03  0.523470875086E-03  0.447988985199E-03            
h        -0.110470194202E-02  0.672311581989E-03 -0.120895171115E-02            
o        -0.361668159363E-03  0.255516140991E-03 -0.490228261264E-04            
h        -0.739453406938E-04  0.337679633267E-03  0.134009696224E-03            
o        -0.536212661438E-04 -0.342745398701E-04 -0.654405115917E-04            
h         0.141635644719E-03  0.689666842758E-03 -0.209180445794E-03            
h         0.106297435127E-01 -0.598453232299E-02 -0.301607174356E-02            
 
    18 energy records for statistics read from mdlog.3                                                                         
    32 energy records for statistics read from mdlog.4                                                                         
       Total Energy (H):
              current value   -1151.90928654    
                    average   -1151.90360750    
         standard deviation   0.148979083669E-01
                      drift  -0.102074297338E-03
        jump from last step  -0.289016246188E-02
 
     Kinetic Energy (H):
              current value   0.132401032692    
                    average   0.771556524742E-01
         standard deviation   0.559829971889E-01
                      drift   0.412242667455E-03
 avg. quasi-temperature (K)    2320.15325645    
      number of constraints       0
 
         Pressure (GPa):
              current value    0.00000000000    
                    average    0.00000000000    
 
 
   approx integration error   0.637995741195E-01
 
Estimated integration error by reading last steps from mdlog.4                  
 
Generating $log data for last completed MD step:                                
t=   31960.0000000                                                              
 0.138076648040     -0.102153666717      0.135241305379     ti                  
  1.34342672192      -2.06197518390       2.09802023671     o                   
 -2.74316710860     -0.994971873877      -1.87643434667     o                   
 -2.29506199901     -0.790586710201      -3.54026937945     h                   
 -1.36095202950       2.55614132494       1.80943013968     o                   
 -1.89814206985       3.03740927917       3.46001506307     h                   
  2.60329394737      0.614939278156      -2.19865922108     o                   
  4.36629604366      0.331533565901      -2.44028386760     h                   
 -4.23629549377      0.464493293164      -1.24531595430     h                   
  40.0000000000       0.00000000000                                             
ti       -0.599505983975E-04 -0.866086455845E-04 -0.574069910565E-04            
o         0.150700348504E-03 -0.234114461910E-03  0.460522331012E-04            
o        -0.841647790467E-04  0.470965307570E-03  0.361181315729E-03            
h        -0.120414837573E-02  0.414974340602E-03  0.163845554528E-03            
o        -0.346922602601E-03  0.254924107382E-03 -0.260229239967E-04            
h        -0.138795545382E-03  0.362782795005E-03 -0.111454131412E-04            
o        -0.257871250469E-04 -0.421675919958E-04 -0.597168293546E-04            
h         0.500051166135E-04  0.764213496347E-03 -0.268982816787E-03            
h         0.900173622600E-02 -0.456278855238E-02 -0.225870164077E-02            
 0.132401032692      -1152.04168757       0.00000000000                         
-0.774884582062E-01 -0.246151303239E-01 -0.476376195818E-01                     
 0.111735484627E-01  0.765634455640E-02  0.110941394836E-02                     
 0.120468655431     -0.345743502274E-01 -0.601197805033E-01                     
-0.506122447836E-02 -0.115207904794E-01  0.625203689174E-01                     
 0.818888495189E-02  0.137872988027E-02  0.164225322047E-01                     
-0.301192851394E-02  0.130385587298E-02 -0.660794188901E-02                     
 0.199147298447E-01 -0.599788897358E-02  0.370963373537E-02                     
-0.414586391212E-02  0.373218149453E-02 -0.284041971193E-02                     
-0.700383435773E-01  0.626370482008E-01  0.334438128859E-01                     
 
Generated $current data for new MD step:                                        
t=   32000.0000000                                                              
 0.137098536150     -0.105166960592      0.133817945800     ti                  
  1.34884175437      -2.07175978986       2.09980146352     o                   
 -2.75314261686     -0.974236510810      -1.85868891956     o                   
 -2.33882068156     -0.763955572901      -3.58815753112     h                   
 -1.37527817629       2.56626265204       1.80748828170     o                   
 -1.90107114109       3.05078520920       3.46532336166     h                   
  2.60116993919      0.613581618997      -2.20125140497     o                   
  4.37190641600      0.358852167681      -2.44856977747     h                   
 -3.81523751034      0.227438174322      -1.36478648383     h                   
  40.0000000000       0.00000000000                                             
ti       -0.246927476264E-04 -0.760715680037E-04 -0.359331679789E-04            
o         0.136704226886E-03 -0.247015508177E-03  0.449676408263E-04            
o        -0.251834897691E-03  0.523470875086E-03  0.447988985199E-03            
h        -0.110470194202E-02  0.672311581989E-03 -0.120895171115E-02            
o        -0.361668159363E-03  0.255516140991E-03 -0.490228261264E-04            
h        -0.739453406938E-04  0.337679633267E-03  0.134009696224E-03            
o        -0.536212661438E-04 -0.342745398701E-04 -0.654405115917E-04            
h         0.141635644719E-03  0.689666842758E-03 -0.209180445794E-03            
h         0.106297435127E-01 -0.598453232299E-02 -0.301607174356E-02            
 
Logging MD run data ($log) to file mdlog.4                                                                         
Writing data for next step ($current) to mdlog.4                                                                         

    2018-03-08 02:17:49.575 

         total cpu-time :   1.12 seconds
         total wall-time :   1.12 seconds

          ******************************************************



    ------------------------------------------------------------------------
         total  cpu-time :   1.12 seconds
         total wall-time :   1.12 seconds
    ------------------------------------------------------------------------

   ****  frog : all done  ****


    2018-03-08 02:17:49.575 

 operating system is UNIX !
 hostname is c-6-30.local

 ridft (c-6-30.local) : TURBOMOLE V7.1 ( ) 5 Apr 2016 at 11:29:09
 Copyright (C) 2016 TURBOMOLE GmbH, Karlsruhe


    2018-03-08 02:17:49.783 



                                  r i d f t

                        DFT program with RI approximation 
                                for coulomb part 




                                                 
                                 References:     
                                                 
          TURBOMOLE:                             
              R. Ahlrichs, M. Baer, M. Haeser, H. Horn, and
              C. Koelmel
              Electronic structure calculations on workstation
              computers: the program system TURBOMOLE
              Chem. Phys. Lett. 162: 165 (1989)
          Density Functional:                              
              O. Treutler and R. Ahlrichs                      
              Efficient Molecular Numerical Integration Schemes
              J. Chem. Phys. 102: 346 (1995)                   
          Parallel Version:                                
              Performance of parallel TURBOMOLE for Density    
              Functional Calculations                          
              M. v. Arnim and R. Ahlrichs                      
              J. Comp. Chem. 19: 1746 (1998)                   
          RI-J Method:                                     
              Auxiliary Basis Sets to approximate Coulomb      
              Potentials                                       
              Chem. Phys. Lett. 240: 283 (1995)                
              K. Eichkorn, O. Treutler, H. Oehm, M. Haeser     
              and R. Ahlrichs                                  
              Chem. Phys. Lett. 242: 652 (1995)                
                                                           
              Auxiliary Basis Sets for Main Row Atoms and their
              Use to approximate Coulomb Potentials            
              K. Eichkorn, F. Weigend, O. Treutler and         
              R. Ahlrichs                                      
              Theo. Chem. Acc. 97: 119 (1997)                   
                                                           
              Accurate Coulomb-fitting basis sets for H to Rn 
              F. Weigend                                        
              Phys. Chem. Chem. Phys. 8: 1057 (2006)            
                                                           
          Multipole accelerated RI-J (MARI-J):             
              Fast evaluation of the Coulomb potential for     
              electron densities using multipole accelerated   
              resolution of identity approximation             
              M. Sierka, A. Hogekamp and R. Ahlrichs           
              J. Chem. Phys. 118: 9136 (2003)                  
          RI-JK Method:                                     
              A fully direct RI-HF algorithm: Implementation,
              optimised auxiliary basis sets, demonstration of
              accuracy and efficiency                         
              F. Weigend                                      
              Phys. Chem. Chem. Phys. 4: 4285 (2002)           
          Two-component HF and DFT with spin-orbit coupling:  
              Self-consistent treatment of spin-orbit         
              interactions with efficient Hartree-Fock and    
              density functional methods                      
              M. K. Armbruster, F. Weigend, C. van Wüllen and 
              W. Klopper                                      
              Phys. Chem. Chem. Phys. 10: 1748 (2008)         
          Relativistic all-electron 2c calculations           
              An efficient implementation of two-component    
              relativistic exact-decoupling methods for large 
              molecules                                       
              D. Peng, N. Middendorf, F. Weigend, M. Reiher   
              J. Chem. Phys. 138, 184105 (2013)               
                                         


 


              +--------------------------------------------------+
              |      general information about current run       |
              +--------------------------------------------------+

 

 DENSITY CONVERGENCE CHECK SWITCHED ON !
 SCF CONVERGENCE IF RMS(delta[D]) <     0.1000000000E-06

 PBE0 hybrid functional
 exchange:    3/4 (LDA+PBE) + 1/4 HF
 correlation: LDA (PW) + PBE
 A Hybrid-DFT calculation using the RI-J approximation will be carried out.
 Allocatable memory for RI due to $ricore (MB):         500


              +--------------------------------------------------+
              | Atomic coordinate, charge and isotop information |
              +--------------------------------------------------+

                    atomic coordinates            atom    charge  isotop
          0.13709854   -0.10516696    0.13381795    ti    22.000     0
          1.34884175   -2.07175979    2.09980146    o      8.000     0
         -2.75314262   -0.97423651   -1.85868892    o      8.000     0
         -2.33882068   -0.76395557   -3.58815753    h      1.000     0
         -1.37527818    2.56626265    1.80748828    o      8.000     0
         -1.90107114    3.05078521    3.46532336    h      1.000     0
          2.60116994    0.61358162   -2.20125140    o      8.000     0
          4.37190642    0.35885217   -2.44856978    h      1.000     0
         -3.81523751    0.22743817   -1.36478648    h      1.000     0
 
       center of nuclear mass  :    0.00000003    0.00000007    0.00000000
       center of nuclear charge:   -0.03610910    0.02810742   -0.03816207

              +--------------------------------------------------+
              |               basis set information              |
              +--------------------------------------------------+

              we will work with the 1s 3p 5d 7f 9g ... basis set
              ...i.e. with spherical basis functions...

   type   atoms  prim   cont   basis
   ---------------------------------------------------------------------------
    ti       1     73     31   def2-SVP   [5s3p2d1f|14s9p5d1f]
    o        4     24     14   def2-SVP   [3s2p1d|7s4p1d]
    h        4      7      5   def2-SVP   [2s1p|4s1p]
   ---------------------------------------------------------------------------
   total:    9    197    107
   ---------------------------------------------------------------------------

   total number of primitive shells          :   46
   total number of contracted shells         :   47
   total number of cartesian basis functions :  116
   total number of SCF-basis functions       :  107


 integral neglect threshold       :  0.29E-10
 integral storage threshold THIZE :  0.10E-04
 integral storage threshold THIME :         5

 RI-J AUXILIARY BASIS SET information:

              we will work with the 1s 3p 5d 7f 9g ... basis set
              ...i.e. with spherical basis functions...

   type   atoms  prim   cont   basis
   ---------------------------------------------------------------------------
    ti       1    107     89   def2-SVP   [8s5p5d2f3g|19s5p5d3f3g]
    o        4     70     49   def2-SVP   [6s4p3d1f1g|12s5p4d2f1g]
    h        4     16     11   def2-SVP   [3s1p1d|5s2p1d]
   ---------------------------------------------------------------------------
   total:    9    451    329
   ---------------------------------------------------------------------------

   total number of primitive shells          :   67
   total number of contracted shells         :  103
   total number of cartesian basis functions :  410
   total number of SCF-basis functions       :  329


 symmetry group of the molecule :   c1 

 the group has the following generators :
   c1(z)

    1 symmetry operations found

 there are 1 real representations :   a   

 maximum number of shells which are related by symmetry :  1


    mo occupation :
   irrep   mo's   occupied
    a      107       29
 
 number of basis functions   :          107
 number of occupied orbitals :           29
 
  
           ------------------
           density functional
           ------------------
 PBE0 hybrid functional
 exchange:    3/4 (LDA+PBE) + 1/4 HF
 correlation: LDA (PW) + PBE
 iterations will be done with small grid
  
 spherical integration : Lebedev's spherical grid
 spherical gridsize    :           3
    i.e. gridpoints    :         302
 value for diffuse not defined
 radial integration    : Chebyshev 2nd kind (scaling 3)
 radial gridsize       :           3
 integration cells     :           9
 partition function    : becke
 partition sharpness   :           3
  

 biggest AO integral is expected to be    13.493451081
  
           ------------------------
               RI-J - INFORMATION
           ------------------------
 Contributions to RI integral batches: 
  neglected integral batches:          65
  direct contribution:                  0
  memory contribution:        1063
 Memory core needed for (P|Q) and Cholesky      1 MByte
 Memory core minimum needed except of (P|Q)     1 MByte
 Total minimum memory core needed (sum)         1 MByte
  
 ****************************************
 Memory allocated for RI-J    22 MByte
 ****************************************
                                            

          ------------------------
          nuclear repulsion energy  :   330.259236237    
          ------------------------

 
          -----------------
          -S,T+V- integrals
          -----------------

 1e-integrals will be neglected if expon. factor < 0.288100E-11
 
   Difference densities algorithm switched on.
   The maximal number of linear combinations of
   difference densities is          20 .

 DIIS switched on: error vector is FDS-SDF
 Max. Iterations for DIIS is     :   4
 DIIS matrix (see manual) 
    Scaling factor of diagonals  :  1.200
    threshold for scaling factor :  0.000

 scf convergence criterion : increment of total energy < .1000000D-06
                  and increment of one-electron energy < .1000000D-03

  MOs are in ASCII format !


 automatic virtual orbital shift switched on 
      shift if e(lumo)-e(homo) < 0.10000000    


 reading orbital data $scfmo  from file mos
 orbital characterization : scfconv=7

 DSCF restart information will be dumped onto file mos


 Starting SCF iterations

          Overall gridpoints after grid construction =         13470

 ITERATION  ENERGY          1e-ENERGY        2e-ENERGY     RMS[dD(SAO)]   TOL
   1  -1152.0392308907    -2239.7917520     757.49328486    0.000D+00 0.287D-10
                            Exc = -58.6674723655     Coul =  834.999294957    
                            exK = -18.8385377317    
                              N = 58.001065149    
                            current damping = 0.700
 
          max. resid. norm for Fia-block=  8.051D-02 for orbital     18a         
          max. resid. fock norm         =  2.420D-01 for orbital     44a         

 ITERATION  ENERGY          1e-ENERGY        2e-ENERGY     RMS[dD(SAO)]   TOL
   2  -1152.0543149236    -2240.2400693     757.92651817    0.222D-02 0.182D-10
                            Exc = -58.6962086536      Eck =  816.622726825    
                              N = 58.001078637    
                            current damping = 0.650
 
          Norm of current diis error: 0.11151    
          max. resid. norm for Fia-block=  3.135D-02 for orbital     14a         
          max. resid. fock norm         =  1.244D-01 for orbital     84a         

 ITERATION  ENERGY          1e-ENERGY        2e-ENERGY     RMS[dD(SAO)]   TOL
   3  -1152.0560618069    -2239.8846599     757.56936189    0.970D-03 0.145D-10
                            Exc = -58.6922906470      Eck =  816.261652541    
                              N = 58.001084825    
                            current damping = 0.600
 
          Norm of current diis error: 0.71601E-01
          max. resid. norm for Fia-block=  1.152D-02 for orbital     18a         
          max. resid. fock norm         =  4.903D-02 for orbital     85a         

 ITERATION  ENERGY          1e-ENERGY        2e-ENERGY     RMS[dD(SAO)]   TOL
   4  -1152.0564112232    -2240.3439965     758.02834904    0.566D-03 0.134D-10
                            Exc = -58.6906737052      Eck =  816.719022748    
                              N = 58.001090111    
                            current damping = 0.650
 
          Norm of current diis error: 0.58667E-01
          max. resid. norm for Fia-block=  5.177D-03 for orbital     18a         
          max. resid. fock norm         =  1.732D-02 for orbital     87a         

 ITERATION  ENERGY          1e-ENERGY        2e-ENERGY     RMS[dD(SAO)]   TOL
   5  -1152.0568562023    -2240.1446110     757.82851857    0.275D-03 0.129D-10
                            Exc = -58.6955029001      Eck =  816.524021471    
                              N = 58.001090495    
                            current damping = 0.700
 
          Norm of current diis error: 0.10259E-01
          max. resid. norm for Fia-block=  2.108D-03 for orbital     18a         
          max. resid. fock norm         =  6.859D-03 for orbital     87a         
          mo-orthogonalization: Cholesky decomposition

 ITERATION  ENERGY          1e-ENERGY        2e-ENERGY     RMS[dD(SAO)]   TOL
   6  -1152.0568722073    -2240.1443777     757.82826925    0.730D-04 0.124D-10
                            Exc = -58.6957338594      Eck =  816.524003113    
                              N = 58.001091342    
                            current damping = 0.550
 
          Norm of current diis error: 0.36647E-02
          max. resid. norm for Fia-block=  8.410D-04 for orbital     14a         
          max. resid. fock norm         =  2.709D-03 for orbital    105a         

 ITERATION  ENERGY          1e-ENERGY        2e-ENERGY     RMS[dD(SAO)]   TOL
   7  -1152.0568741874    -2240.1392406     757.82313022    0.360D-04 0.123D-10
                            Exc = -58.6948639151      Eck =  816.517994132    
                              N = 58.001091581    
                            current damping = 0.400
 
          Norm of current diis error: 0.25529E-02
          max. resid. norm for Fia-block=  3.745D-04 for orbital     18a         
          max. resid. fock norm         =  9.265D-04 for orbital    105a         

 ITERATION  ENERGY          1e-ENERGY        2e-ENERGY     RMS[dD(SAO)]   TOL
   8  -1152.0568750808    -2240.1451034     757.82899204    0.175D-04 0.119D-10
                            Exc = -58.6953673085      Eck =  816.524359351    
                              N = 58.001091858    
                            current damping = 0.450
 
          Norm of current diis error: 0.10193E-02
          max. resid. norm for Fia-block=  1.224D-04 for orbital     27a         
          max. resid. fock norm         =  3.039D-04 for orbital    105a         

 ITERATION  ENERGY          1e-ENERGY        2e-ENERGY     RMS[dD(SAO)]   TOL
   9  -1152.0568749914    -2240.1363542     757.82024295    0.969D-05 0.116D-10
                            Exc = -58.6954687045      Eck =  816.515711655    
                              N = 58.001091854    
                            current damping = 0.500
 
          Norm of current diis error: 0.13742E-02
          max. resid. norm for Fia-block=  5.501D-05 for orbital     27a         
          max. resid. fock norm         =  1.050D-04 for orbital     87a         

 ITERATION  ENERGY          1e-ENERGY        2e-ENERGY     RMS[dD(SAO)]   TOL
  10  -1152.0568751998    -2240.1399091     757.82379763    0.434D-05 0.112D-10
                            Exc = -58.6953716971      Eck =  816.519169324    
                              N = 58.001091887    
                            current damping = 0.550
 
          Norm of current diis error: 0.51569E-03
          max. resid. norm for Fia-block=  2.998D-05 for orbital     18a         
          max. resid. fock norm         =  4.513D-05 for orbital     20a         
          mo-orthogonalization: Cholesky decomposition

 ITERATION  ENERGY          1e-ENERGY        2e-ENERGY     RMS[dD(SAO)]   TOL
  11  -1152.0568752307    -2240.1414053     757.82529388    0.208D-05 0.104D-10
                            Exc = -58.6953402139      Eck =  816.520634091    
                              N = 58.001091915    
                            current damping = 0.400
 
          Norm of current diis error: 0.10243E-03
          max. resid. norm for Fia-block=  9.372D-06 for orbital     28a         
          max. resid. fock norm         =  1.607D-05 for orbital     28a         

 ITERATION  ENERGY          1e-ENERGY        2e-ENERGY     RMS[dD(SAO)]   TOL
  12  -1152.0568752322    -2240.1417777     757.82566620    0.764D-06 0.105D-10
                            Exc = -58.6953535539      Eck =  816.521019752    
                              N = 58.001091921    
                            current damping = 0.250
 
          Norm of current diis error: 0.58796E-04
          max. resid. norm for Fia-block=  3.596D-06 for orbital     28a         
          max. resid. fock norm         =  6.361D-06 for orbital     28a         

 ENERGY & DENSITY CONVERGED !

          Overall gridpoints after grid construction =         48487

 ITERATION  ENERGY          1e-ENERGY        2e-ENERGY     RMS[dD(SAO)]   TOL
  13  -1152.0563577713    -2240.1416800     757.82608595    0.334D-06 0.102D-10
                            Exc = -58.6948281268      Eck =  816.520914080    
                              N = 58.000032687    
                            current damping = 0.300
 
          Norm of current diis error: 0.66277E-05
          max. resid. norm for Fia-block=  9.565D-07 for orbital     18a         
          max. resid. fock norm         =  1.002D-06 for orbital     18a         

 End of SCF iterations

   convergence criteria satisfied after   13 iterations


                  ------------------------------------------ 
                 |  total energy      =  -1152.05635777133  |
                  ------------------------------------------ 
                 :  kinetic energy    =   1149.22494393027  :
                 :  potential energy  =  -2301.28130170160  :
                 :  virial theorem    =      1.99754229572  :
                 :  wavefunction norm =      1.00000000000  :
                  .......................................... 


 orbitals $scfmo  will be written to file mos

    irrep                 25a         26a         27a         28a         29a   
 eigenvalues H         -0.31256    -0.29727    -0.29339    -0.28401    -0.27626
            eV          -8.5052     -8.0893     -7.9837     -7.7283     -7.5175
 occupation              2.0000      2.0000      2.0000      2.0000      2.0000 

    irrep                 30a         31a         32a         33a         34a   
 eigenvalues H         -0.01990    -0.00361     0.01246     0.04837     0.05194
            eV          -0.5415     -0.0981      0.3391      1.3163      1.4133
 
 
 
 
 ==============================================================================
                           electrostatic moments
 ==============================================================================

 reference point for electrostatic moments:    0.00000   0.00000   0.00000

 
              nuc           elec       ->  total
 ------------------------------------------------------------------------------
                          charge      
 ------------------------------------------------------------------------------
          58.000000     -58.000000       0.000000
 
 ------------------------------------------------------------------------------
                       dipole moment  
 ------------------------------------------------------------------------------
   x      -2.094328       0.593735      -1.500593
   y       1.630231      -1.340947       0.289284
   z      -2.213400       0.812138      -1.401262
 
   | dipole moment | =     2.0734 a.u. =     5.2701 debye 
 
 ------------------------------------------------------------------------------
                     quadrupole moment
 ------------------------------------------------------------------------------
  xx     187.620417    -210.074068     -22.453651
  yy     107.942838    -140.406506     -32.463668
  zz     160.946734    -186.037124     -25.090389
  xy     -19.993540      20.290831       0.297290
  xz      -5.386826       5.871201       0.484375
  yz      17.801345     -13.768695       4.032651
 
     1/3  trace=     -26.669236
     anisotropy=      11.424309
 
 ==============================================================================
 


    ------------------------------------------------------------------------
         total  cpu-time :  12.16 seconds
         total wall-time :  12.18 seconds
    ------------------------------------------------------------------------

   ****  ridft : all done  ****


    2018-03-08 02:18:01.801 

fine, there is no data group "$actual step"
next step = rdgrad
 hostname is c-6-30.local
           Doing BLAS/Lapack in the master proc. with  8 CPUs.
           SMPCPUS    set: Shared-memory Parallelization with   8 CPUs.

           SMP Parallelization Reference:
           C. van Wullen, J. Comput. Chem. 32 (2011) 1195--1201

 egrad (c-6-30.local) : TURBOMOLE V7.1 ( ) 5 Apr 2016 at 11:29:09
 Copyright (C) 2016 TURBOMOLE GmbH, Karlsruhe


    2018-03-08 02:18:02.111 




                               e g r a d

                       quantum chemistry group
                       university of karlsruhe
                               germany


             integral direct evaluation of excited state
                     and polarizability gradients
                 and first-order nonadiabatic couplings



          references (see also programs escf, dscf and ridft) 

          review 
          F. Furche and D. Rappoport,  
          "Density functional methods for excited states: 
          equilibrium structure and electronic spectra",
          ch. III of "Computational Photochemistry", ed. by 
          M. Olivucci, vol. 16 of "Theoretical and Computational 
          Chemistry", Elsevier, Amsterdam, 2005.

          RI-J method 
          D. Rappoport and F. Furche, 
          J. Chem. Phys. 122 (2005), 064105.

          Lagrangian method, implementation, benchmarks 
          F. Furche and R. Ahlrichs,
          J. Chem. Phys. 117 (2002), 7433;
          J. Chem. Phys. 121 (2004), 12772 (E).

          Polarizability derivatives, Raman intensities 
          D. Rappoport and F. Furche, 
          J. Chem. Phys. 126 (2007), 201104.

          First-order nonadiabatic couplings 
          R. Send and F. Furche, 
          J. Chem. Phys. 132 (2010), 044107.
                                     




              +--------------------------------------------------+
              | Atomic coordinate, charge and isotop information |
              +--------------------------------------------------+

                    atomic coordinates            atom    charge  isotop
          0.13709854   -0.10516696    0.13381795    ti    22.000     0
          1.34884175   -2.07175979    2.09980146    o      8.000     0
         -2.75314262   -0.97423651   -1.85868892    o      8.000     0
         -2.33882068   -0.76395557   -3.58815753    h      1.000     0
         -1.37527818    2.56626265    1.80748828    o      8.000     0
         -1.90107114    3.05078521    3.46532336    h      1.000     0
          2.60116994    0.61358162   -2.20125140    o      8.000     0
          4.37190642    0.35885217   -2.44856978    h      1.000     0
         -3.81523751    0.22743817   -1.36478648    h      1.000     0
 
       center of nuclear mass  :    0.00000003    0.00000007    0.00000000
       center of nuclear charge:   -0.03610910    0.02810742   -0.03816207

              +--------------------------------------------------+
              |               basis set information              |
              +--------------------------------------------------+

              we will work with the 1s 3p 5d 7f 9g ... basis set
              ...i.e. with spherical basis functions...

   type   atoms  prim   cont   basis
   ---------------------------------------------------------------------------
    ti       1     73     31   def2-SVP   [5s3p2d1f|14s9p5d1f]
    o        4     24     14   def2-SVP   [3s2p1d|7s4p1d]
    h        4      7      5   def2-SVP   [2s1p|4s1p]
   ---------------------------------------------------------------------------
   total:    9    197    107
   ---------------------------------------------------------------------------

   total number of primitive shells          :   46
   total number of contracted shells         :   47
   total number of cartesian basis functions :  116
   total number of SCF-basis functions       :  107


 residuum convergence criterium   :  0.10E-04


 integral neglect threshold       :  0.29E-10
 integral storage threshold THIZE :  0.10E-04
 integral storage threshold THIME :         5

 
             FOUND RI-J FLAG !
 
  
 AUXILIARY BASIS SET information:

              we will work with the 1s 3p 5d 7f 9g ... basis set
              ...i.e. with spherical basis functions...

   type   atoms  prim   cont   basis
   ---------------------------------------------------------------------------
    ti       1    107     89   def2-SVP   [8s5p5d2f3g|19s5p5d3f3g]
    o        4     70     49   def2-SVP   [6s4p3d1f1g|12s5p4d2f1g]
    h        4     16     11   def2-SVP   [3s1p1d|5s2p1d]
   ---------------------------------------------------------------------------
   total:    9    451    329
   ---------------------------------------------------------------------------

   total number of primitive shells          :   67
   total number of contracted shells         :  103
   total number of cartesian basis functions :  410
   total number of SCF-basis functions       :  329

 RPA SINGLET-EXCITATION-CALCULATION 
 
             FOUND DFT-FLAG !
 
 
 FOUND Nonadiabatic Coupling-FLAG !
 Note: the sign convention for NACME changed
 such that <0|d/dx|n> is now computed.

 symmetry group of the molecule :   c1 

 the group has the following generators :
   c1(z)

    1 symmetry operations found

 there are 1 real representations :   a   

 maximum number of shells which are related by symmetry :  1

 IRREP of excited state :   a   
 

 determining totally symmetric integral contributions 
    - equivalent to irreducible tensor elements - 
 which can be formed within each triple of representations :

             representation triple      contributions

              a     a     a               1

    mo occupation :
   irrep   mo's   occupied
    a      107       29
 
 number of basis functions   :          107
 number of occupied orbitals :           29
 
  
           ------------------
           density functional
           ------------------
 PBE0 hybrid functional
 exchange:    3/4 (LDA+PBE) + 1/4 HF
 correlation: LDA (PW) + PBE
 iterations will be done with small grid
  
 spherical integration : Lebedev's spherical grid
 spherical gridsize    :           3
    i.e. gridpoints    :         302
 value for diffuse not defined
 radial integration    : Chebyshev 2nd kind (scaling 3)
 radial gridsize       :           3
 integration cells     :           9
 partition function    : becke
 partition sharpness   :           3
  
 
 Derivatives of quadrature weights will be included
 
  
           ----------------------
               RI - INFORMATION
           ----------------------

 biggest AO integral is expected to be    13.493451081

 Threshold for integral neglect (rithr2):   0.29E-10
 Threshold for integral neglect (rithr1):   0.29E-10

 Contributions to RI integral batches: 
  neglected integral batches:          57
  direct contribution:                  0
  memory contribution:        1071
 Core memory available (ricore)            500 MiB
 Core memory needed for (P|Q) and Cholesky 1 MiB
 Core memory used for integrals            21 MiB
  
 ****************************************
 Memory allocated for RIDFT 22 MiB
 ****************************************
                                            
  MOs are in ASCII format !


 reading orbital data $scfmo  from file mos
 orbital characterization : scfconv=7
 preparing numerical integration ....
          Overall gridpoints after grid construction =         13470
 Ordering of quadrature gridpoints disabled.

 Calculating ground state density on molecular grid

 Integral of ground state density: N =   58.00109192412571    



 number of non-frozen orbitals          :   107
 number of non-frozen occupied orbitals :    29



                        -------------------
                         excitation vector 
                        -------------------


 dimension of super-tensorspace: 2

          IRREP   tensor space dimension   number of roots

           a              2262                   1

 maximum number of Davidson iterations set to   25


 machine precision: 2.22D-16


 logfile sing_a    exists already

 found      1 converged vectors on sing_a   
 read       1 vectors from logfile sing_a   



                       Nonorthonormal Krylov Space Iteration


 total number of roots to be determined:   1


 maximum core memory set to   500 MB,
 corresponding to     2317 vectors in CAO basis


 maximum number of simultaneously treated vectors (including degeneracy):        1


 Iteration IRREP Converged      Max. Euclidean
                 roots          residual norm

    1       a        0        4.407343908985818D-02
 
    2       a        0        4.443652903370955D-02
 
    3       a        0        3.869610079972099D-02
 
    4       a        0        2.800881459534212D-02
 
    5       a        0        1.637198944143240D-02
 
    6       a        0        1.103787005354960D-02
 
    7       a        0        7.313332981121073D-03
 
    8       a        0        7.463356869367385D-03
 
    9       a        0        5.871703737767623D-03
 
   10       a        0        4.859979656005080D-03
 
   11       a        0        3.385983825681939D-03
 
   12       a        0        3.540124126064236D-03
 
   13       a        0        4.759019353387556D-03
 
   14       a        0        5.028460464019026D-03
 
   15       a        0        5.172693473808093D-03
 
   16       a        0        2.719310514371439D-03
 
   17       a        0        2.984842311224462D-03
 
   18       a        0        2.444346927492291D-03
 
   19       a        0        1.913733086980752D-03
 
   20       a        0        8.588305984780525D-04
 
   21       a        0        5.491964956570277D-04
 
   22       a        0        3.798231169904495D-04
 
   23       a        0        2.740700037860417D-04
 
   24       a        0        1.826910445576333D-04
 
   25       a        0        1.422685528517582D-04
 


 Warning! No convergence within  25 iterations.
 Unless you have specified a very low $escfiterlimit/$forceiterlimit, 
 this is a reason to worry!



 IRREP   Vector     Eigenvalue           Euclidean residual norm

  a         1    1.996459168201591D-01    1.422685528517582D-04
 

 Deallocation failure for file unit arrays in <egrad>


========================
 internal module stack: 
------------------------
    egrad
========================

  abnormal termination
 egrad ended abnormally
error in gradient step (1)
