
OPTIMIZATION CYCLE 411
Wed Mar  7 23:27:00 PST 2018
 hostname is c-5-39.local

 frog (c-5-39.local) : TURBOMOLE V7.1 ( ) 5 Apr 2016 at 11:29:09
 Copyright (C) 2016 TURBOMOLE GmbH, Karlsruhe


    2018-03-07 23:27:00.544 


 frog (c-5-39.local) : TURBOMOLE V7.1 ( ) 5 Apr 2016 at 11:29:09
 Copyright (C) 2016 TURBOMOLE GmbH, Karlsruhe


    2018-03-07 23:27:00.545 

 
       `--._            A b     I n i t i o           .-
            `.  M o l e c u l a r   D y n a m i c s  /
              \               .-.       .           / 
               \             /   \     / `.        /  
                `-----._    /     `._.'    `--.__.'   
                        `--'                          
 
 

Reading information from mdmaster                                                                        
 
 =========================================
 TDDFT-SURFACE HOPPING switched on
 Tapavicza, Meyer, and Furche,
 Phys. Chem. Chem. Phys. 13 (2011), 20986.
 =========================================
 
 found keyword $gap_threshold; hop is enforced if gap <  0.500000000000000     
Reading log history information from mdmaster                                                                        
Reading input data from mdlog.2                                                                         
Checking for non-default isotopic masses in control                                                                         
 
No constraints requested.
Reading status from mdmaster                                                                        
Reading actions from mdmaster                                                                        
Getting gradients from control                                                                         
 non-adiabatic coupling vector
  2.409475784405200E-002 -9.544221720894901E-002 -7.925179704519200E-002
 -1.314990865788500E-002 -5.448903768592200E-002 -7.212596716837000E-002
  2.703307618967700E-003  0.152746857430880      -2.739367763584900E-002
  3.657079067988000E-002  6.028056204236900E-002 -4.969521629189500E-002
  8.780143095214700E-003 -8.182518578299700E-003  9.142980795193901E-003
 -1.078285214541700E-003 -2.976051548585400E-003  8.796921509641000E-003
 -4.456785916215100E-004  4.073990282150600E-002 -7.156217205337700E-004
  8.499729712954899E-003 -5.732359720523300E-004  5.561589592437800E-003
 -1.254602779460800E-002 -1.194240671342700E-002 -4.131332861469600E-003
 leap: Read last 2 entries of RUN.dat
 Old state:           0
 New state:           0
 Propagating Coefficients
 
 ==============Surface Hopping Information================
 
 Probability from           1 to           2 :  1.320896857717007E-003
 Random number   0.769751789248036     
 
 COEFF OF STATE           1 = (0.989752511306599,1.121271510389139E-003)
 COEFF OF STATE           2 = (0.142643777703478,-6.439083391023545E-003)
 
 POPULATION OF STATE           1 =  0.979611290887519     
 POPULATION OF STATE           2 =  2.038870911243590E-002
 SUM OF ALL POPULATIONS =  0.999999999999955     
 
 =========================================================
 
Scaling KE by   0.909497000635    
 
Generating $log data for last completed MD step:                                
t=   16400.0000000                                                              
 0.368957142660E-01 -0.878573408710E-01 -0.951161679829E-01 ti                  
  1.58249655235      -2.31453059702       2.19182255046     o                   
 -3.01373143459      -1.22825245931      -2.09760721715     o                   
 -4.46734306733     -0.921177518172      -3.04360312011     h                   
-0.893092722228       2.48781534063       2.31665899325     o                   
 -2.42484719789       3.43334627738       2.24164648701     h                   
  2.41460662082       1.19805951085      -2.09434230800     o                   
  3.06998034213      0.196382270234      -3.46035677945     h                   
 0.635890389099     -0.804742889719       3.75807910675     h                   
  40.0000000000       0.00000000000                                             
ti        0.858296383625E-06  0.408558783810E-04 -0.279890932431E-03            
o         0.237383988122E-03 -0.320452492194E-03 -0.720167534341E-03            
o         0.815440944090E-03  0.407214396784E-03  0.407488085795E-03            
h        -0.569930499090E-03 -0.562278446788E-03  0.215235514926E-02            
o        -0.303545535282E-03 -0.225112465290E-03  0.194169580148E-03            
h         0.900443976950E-04  0.145065286191E-02 -0.963181618362E-03            
o        -0.499816212599E-03 -0.484574425382E-03  0.266046222645E-03            
h         0.592447405456E-03 -0.875426739620E-03  0.112865937111E-02            
h        -0.411305104890E-02  0.793315132230E-02  0.864110698213E-02            
 0.167107101897      -1152.02491128       0.00000000000                         
 0.538361335055E-01  0.267735648552E-03 -0.130215846490E-01                     
 0.666319383037E-01 -0.937090277955E-01 -0.366258411411E-01                     
-0.905041503922E-01 -0.945827763917E-02 -0.606998500234E-01                     
 0.232451890397E-01 -0.904511254571E-02  0.165401333886E-01                     
-0.239956303385E-01  0.416620374823E-01  0.309890615955E-01                     
 0.100132003909E-01 -0.426256624156E-02  0.200232982721E-02                     
 0.964499764019E-02  0.564280989236E-02 -0.446692489762E-02                     
-0.525139350123E-02 -0.609715056119E-04  0.499453006048E-02                     
-0.436202846473E-01  0.689633727040E-01  0.602881458367E-01                     
 

   Time t=   16400.0000000     a.u. (  396.683200000     fs)

   e x e c u t i n g    M D   s t e p   (leapfrog algorithm)

   Number of MD steps left:    1089
 
   Time t=   16440.0000000     a.u. (  397.650720000     fs)

 
Provisional $current data:                                                      
t=   16440.0000000                                                              
 0.359435434057E-01 -0.862280117706E-01 -0.106073195488     ti                  
  1.58833648006      -2.32220781426       2.16502514476     o                   
 -2.97614873413      -1.21144500180      -2.07797769659     o                   
 -4.51038191408     -0.935792282484      -2.97191186033     h                   
-0.903918142033       2.47652526034       2.32272571482     o                   
 -2.42996479462       3.49508418249       2.20137561791     h                   
  2.39408484721       1.17836696897      -2.08345540335     o                   
  3.09825108769      0.161418293892      -3.41955958040     h                   
 0.509352358391     -0.547469299704       4.05122520479     h                   
  40.0000000000       0.00000000000                                             
ti       -0.227015510480E-04  0.388462819959E-04 -0.261236223050E-03            
o         0.139234902562E-03 -0.183039354001E-03 -0.638900746615E-03            
o         0.896042536580E-03  0.400721520110E-03  0.468004831476E-03            
h        -0.102612736555E-02 -0.348443574473E-03  0.170925498920E-02            
o        -0.258098446990E-03 -0.269176830267E-03  0.144642096551E-03            
h        -0.122013168207E-03  0.147194822161E-02 -0.960133552396E-03            
o        -0.489277828770E-03 -0.469507378709E-03  0.259564361848E-03            
h         0.674027950434E-03 -0.833607209446E-03  0.972682252243E-03            
h        -0.301690556117E-02  0.613388812924E-02  0.698915644925E-02            
 
    50 energy records for statistics read from mdlog.2                                                                         
       Total Energy (H):
              current value   -1151.85780418    
                    average   -1151.87214617    
         standard deviation   0.335578274507E-01
                      drift   0.306961023971E-03
        jump from last step  -0.163215134692E-01
 
     Kinetic Energy (H):
              current value   0.167107101897    
                    average   0.952979488760E-01
         standard deviation   0.564921456799E-01
                      drift  -0.932148126413E-03
 avg. quasi-temperature (K)    2865.71157559    
      number of constraints       0
 
         Pressure (GPa):
              current value    0.00000000000    
                    average    0.00000000000    
 
 
   approx integration error   0.501478769503    
 
Estimated integration error by reading last steps from mdlog.2                  
 
Generating $log data for last completed MD step:                                
t=   16400.0000000                                                              
 0.368957142660E-01 -0.878573408710E-01 -0.951161679829E-01 ti                  
  1.58249655235      -2.31453059702       2.19182255046     o                   
 -3.01373143459      -1.22825245931      -2.09760721715     o                   
 -4.46734306733     -0.921177518172      -3.04360312011     h                   
-0.893092722228       2.48781534063       2.31665899325     o                   
 -2.42484719789       3.43334627738       2.24164648701     h                   
  2.41460662082       1.19805951085      -2.09434230800     o                   
  3.06998034213      0.196382270234      -3.46035677945     h                   
 0.635890389099     -0.804742889719       3.75807910675     h                   
  40.0000000000       0.00000000000                                             
ti        0.858296383625E-06  0.408558783810E-04 -0.279890932431E-03            
o         0.237383988122E-03 -0.320452492194E-03 -0.720167534341E-03            
o         0.815440944090E-03  0.407214396784E-03  0.407488085795E-03            
h        -0.569930499090E-03 -0.562278446788E-03  0.215235514926E-02            
o        -0.303545535282E-03 -0.225112465290E-03  0.194169580148E-03            
h         0.900443976950E-04  0.145065286191E-02 -0.963181618362E-03            
o        -0.499816212599E-03 -0.484574425382E-03  0.266046222645E-03            
h         0.592447405456E-03 -0.875426739620E-03  0.112865937111E-02            
h        -0.411305104890E-02  0.793315132230E-02  0.864110698213E-02            
 0.167107101897      -1152.02491128       0.00000000000                         
 0.538361335055E-01  0.267735648552E-03 -0.130215846490E-01                     
 0.666319383037E-01 -0.937090277955E-01 -0.366258411411E-01                     
-0.905041503922E-01 -0.945827763917E-02 -0.606998500234E-01                     
 0.232451890397E-01 -0.904511254571E-02  0.165401333886E-01                     
-0.239956303385E-01  0.416620374823E-01  0.309890615955E-01                     
 0.100132003909E-01 -0.426256624156E-02  0.200232982721E-02                     
 0.964499764019E-02  0.564280989236E-02 -0.446692489762E-02                     
-0.525139350123E-02 -0.609715056119E-04  0.499453006048E-02                     
-0.436202846473E-01  0.689633727040E-01  0.602881458367E-01                     
 
Generated $current data for new MD step:                                        
t=   16440.0000000                                                              
 0.359435434057E-01 -0.862280117706E-01 -0.106073195488     ti                  
  1.58833648006      -2.32220781426       2.16502514476     o                   
 -2.97614873413      -1.21144500180      -2.07797769659     o                   
 -4.51038191408     -0.935792282484      -2.97191186033     h                   
-0.903918142033       2.47652526034       2.32272571482     o                   
 -2.42996479462       3.49508418249       2.20137561791     h                   
  2.39408484721       1.17836696897      -2.08345540335     o                   
  3.09825108769      0.161418293892      -3.41955958040     h                   
 0.509352358391     -0.547469299704       4.05122520479     h                   
  40.0000000000       0.00000000000                                             
ti       -0.227015510480E-04  0.388462819959E-04 -0.261236223050E-03            
o         0.139234902562E-03 -0.183039354001E-03 -0.638900746615E-03            
o         0.896042536580E-03  0.400721520110E-03  0.468004831476E-03            
h        -0.102612736555E-02 -0.348443574473E-03  0.170925498920E-02            
o        -0.258098446990E-03 -0.269176830267E-03  0.144642096551E-03            
h        -0.122013168207E-03  0.147194822161E-02 -0.960133552396E-03            
o        -0.489277828770E-03 -0.469507378709E-03  0.259564361848E-03            
h         0.674027950434E-03 -0.833607209446E-03  0.972682252243E-03            
h        -0.301690556117E-02  0.613388812924E-02  0.698915644925E-02            
 
Logging MD run data ($log) to file mdlog.2                                                                         
Writing data for next step ($current) to mdlog.2                                                                         

    2018-03-07 23:27:01.197 

         total cpu-time :   0.65 seconds
         total wall-time :   0.65 seconds

          ******************************************************



    ------------------------------------------------------------------------
         total  cpu-time :   0.65 seconds
         total wall-time :   0.65 seconds
    ------------------------------------------------------------------------

   ****  frog : all done  ****


    2018-03-07 23:27:01.197 

 operating system is UNIX !
 hostname is c-5-39.local

 ridft (c-5-39.local) : TURBOMOLE V7.1 ( ) 5 Apr 2016 at 11:29:09
 Copyright (C) 2016 TURBOMOLE GmbH, Karlsruhe


    2018-03-07 23:27:01.326 



                                  r i d f t

                        DFT program with RI approximation 
                                for coulomb part 




                                                 
                                 References:     
                                                 
          TURBOMOLE:                             
              R. Ahlrichs, M. Baer, M. Haeser, H. Horn, and
              C. Koelmel
              Electronic structure calculations on workstation
              computers: the program system TURBOMOLE
              Chem. Phys. Lett. 162: 165 (1989)
          Density Functional:                              
              O. Treutler and R. Ahlrichs                      
              Efficient Molecular Numerical Integration Schemes
              J. Chem. Phys. 102: 346 (1995)                   
          Parallel Version:                                
              Performance of parallel TURBOMOLE for Density    
              Functional Calculations                          
              M. v. Arnim and R. Ahlrichs                      
              J. Comp. Chem. 19: 1746 (1998)                   
          RI-J Method:                                     
              Auxiliary Basis Sets to approximate Coulomb      
              Potentials                                       
              Chem. Phys. Lett. 240: 283 (1995)                
              K. Eichkorn, O. Treutler, H. Oehm, M. Haeser     
              and R. Ahlrichs                                  
              Chem. Phys. Lett. 242: 652 (1995)                
                                                           
              Auxiliary Basis Sets for Main Row Atoms and their
              Use to approximate Coulomb Potentials            
              K. Eichkorn, F. Weigend, O. Treutler and         
              R. Ahlrichs                                      
              Theo. Chem. Acc. 97: 119 (1997)                   
                                                           
              Accurate Coulomb-fitting basis sets for H to Rn 
              F. Weigend                                        
              Phys. Chem. Chem. Phys. 8: 1057 (2006)            
                                                           
          Multipole accelerated RI-J (MARI-J):             
              Fast evaluation of the Coulomb potential for     
              electron densities using multipole accelerated   
              resolution of identity approximation             
              M. Sierka, A. Hogekamp and R. Ahlrichs           
              J. Chem. Phys. 118: 9136 (2003)                  
          RI-JK Method:                                     
              A fully direct RI-HF algorithm: Implementation,
              optimised auxiliary basis sets, demonstration of
              accuracy and efficiency                         
              F. Weigend                                      
              Phys. Chem. Chem. Phys. 4: 4285 (2002)           
          Two-component HF and DFT with spin-orbit coupling:  
              Self-consistent treatment of spin-orbit         
              interactions with efficient Hartree-Fock and    
              density functional methods                      
              M. K. Armbruster, F. Weigend, C. van Wüllen and 
              W. Klopper                                      
              Phys. Chem. Chem. Phys. 10: 1748 (2008)         
          Relativistic all-electron 2c calculations           
              An efficient implementation of two-component    
              relativistic exact-decoupling methods for large 
              molecules                                       
              D. Peng, N. Middendorf, F. Weigend, M. Reiher   
              J. Chem. Phys. 138, 184105 (2013)               
                                         


 


              +--------------------------------------------------+
              |      general information about current run       |
              +--------------------------------------------------+

 

 DENSITY CONVERGENCE CHECK SWITCHED ON !
 SCF CONVERGENCE IF RMS(delta[D]) <     0.1000000000E-06

 PBE0 hybrid functional
 exchange:    3/4 (LDA+PBE) + 1/4 HF
 correlation: LDA (PW) + PBE
 A Hybrid-DFT calculation using the RI-J approximation will be carried out.
 Allocatable memory for RI due to $ricore (MB):         500


              +--------------------------------------------------+
              | Atomic coordinate, charge and isotop information |
              +--------------------------------------------------+

                    atomic coordinates            atom    charge  isotop
          0.03594354   -0.08622801   -0.10607320    ti    22.000     0
          1.58833648   -2.32220781    2.16502514    o      8.000     0
         -2.97614873   -1.21144500   -2.07797770    o      8.000     0
         -4.51038191   -0.93579228   -2.97191186    h      1.000     0
         -0.90391814    2.47652526    2.32272571    o      8.000     0
         -2.42996479    3.49508418    2.20137562    h      1.000     0
          2.39408485    1.17836697   -2.08345540    o      8.000     0
          3.09825109    0.16141829   -3.41955958    h      1.000     0
          0.50935236   -0.54746930    4.05122520    h      1.000     0
 
       center of nuclear mass  :    0.00000000   -0.00000002    0.00000004
       center of nuclear charge:   -0.02970948    0.02148517    0.00238036

              +--------------------------------------------------+
              |               basis set information              |
              +--------------------------------------------------+

              we will work with the 1s 3p 5d 7f 9g ... basis set
              ...i.e. with spherical basis functions...

   type   atoms  prim   cont   basis
   ---------------------------------------------------------------------------
    ti       1     73     31   def2-SVP   [5s3p2d1f|14s9p5d1f]
    o        4     24     14   def2-SVP   [3s2p1d|7s4p1d]
    h        4      7      5   def2-SVP   [2s1p|4s1p]
   ---------------------------------------------------------------------------
   total:    9    197    107
   ---------------------------------------------------------------------------

   total number of primitive shells          :   46
   total number of contracted shells         :   47
   total number of cartesian basis functions :  116
   total number of SCF-basis functions       :  107


 integral neglect threshold       :  0.29E-10
 integral storage threshold THIZE :  0.10E-04
 integral storage threshold THIME :         5

 RI-J AUXILIARY BASIS SET information:

              we will work with the 1s 3p 5d 7f 9g ... basis set
              ...i.e. with spherical basis functions...

   type   atoms  prim   cont   basis
   ---------------------------------------------------------------------------
    ti       1    107     89   def2-SVP   [8s5p5d2f3g|19s5p5d3f3g]
    o        4     70     49   def2-SVP   [6s4p3d1f1g|12s5p4d2f1g]
    h        4     16     11   def2-SVP   [3s1p1d|5s2p1d]
   ---------------------------------------------------------------------------
   total:    9    451    329
   ---------------------------------------------------------------------------

   total number of primitive shells          :   67
   total number of contracted shells         :  103
   total number of cartesian basis functions :  410
   total number of SCF-basis functions       :  329


 symmetry group of the molecule :   c1 

 the group has the following generators :
   c1(z)

    1 symmetry operations found

 there are 1 real representations :   a   

 maximum number of shells which are related by symmetry :  1


    mo occupation :
   irrep   mo's   occupied
    a      107       29
 
 number of basis functions   :          107
 number of occupied orbitals :           29
 
  
           ------------------
           density functional
           ------------------
 PBE0 hybrid functional
 exchange:    3/4 (LDA+PBE) + 1/4 HF
 correlation: LDA (PW) + PBE
 iterations will be done with small grid
  
 spherical integration : Lebedev's spherical grid
 spherical gridsize    :           3
    i.e. gridpoints    :         302
 value for diffuse not defined
 radial integration    : Chebyshev 2nd kind (scaling 3)
 radial gridsize       :           3
 integration cells     :           9
 partition function    : becke
 partition sharpness   :           3
  

 biggest AO integral is expected to be    13.493451081
  
           ------------------------
               RI-J - INFORMATION
           ------------------------
 Contributions to RI integral batches: 
  neglected integral batches:          72
  direct contribution:                  0
  memory contribution:        1056
 Memory core needed for (P|Q) and Cholesky      1 MByte
 Memory core minimum needed except of (P|Q)     1 MByte
 Total minimum memory core needed (sum)         1 MByte
  
 ****************************************
 Memory allocated for RI-J    22 MByte
 ****************************************
                                            

          ------------------------
          nuclear repulsion energy  :   313.796613843    
          ------------------------

 
          -----------------
          -S,T+V- integrals
          -----------------

 1e-integrals will be neglected if expon. factor < 0.288100E-11
 
   Difference densities algorithm switched on.
   The maximal number of linear combinations of
   difference densities is          20 .

 DIIS switched on: error vector is FDS-SDF
 Max. Iterations for DIIS is     :   4
 DIIS matrix (see manual) 
    Scaling factor of diagonals  :  1.200
    threshold for scaling factor :  0.000

 scf convergence criterion : increment of total energy < .1000000D-06
                  and increment of one-electron energy < .1000000D-03

  MOs are in ASCII format !


 automatic virtual orbital shift switched on 
      shift if e(lumo)-e(homo) < 0.10000000    


 reading orbital data $scfmo  from file mos
 orbital characterization : scfconv=7

 DSCF restart information will be dumped onto file mos


 Starting SCF iterations

          Overall gridpoints after grid construction =         13522

 ITERATION  ENERGY          1e-ENERGY        2e-ENERGY     RMS[dD(SAO)]   TOL
   1  -1151.9774699243    -2205.8086022     740.03451847    0.000D+00 0.287D-10
                            Exc = -58.4261635537     Coul =  817.206015062    
                            exK = -18.7453330377    
                              N = 57.999824410    
                            current damping = 0.700
 
          max. resid. norm for Fia-block=  4.239D-02 for orbital     21a         
          max. resid. fock norm         =  1.560D-01 for orbital     83a         

 ITERATION  ENERGY          1e-ENERGY        2e-ENERGY     RMS[dD(SAO)]   TOL
   2  -1151.9832306176    -2205.7121991     739.93235463    0.130D-02 0.182D-10
                            Exc = -58.4098228316      Eck =  798.342177464    
                              N = 57.999824256    
                            current damping = 0.650
 
          Norm of current diis error: 0.82642E-01
          max. resid. norm for Fia-block=  1.727D-02 for orbital     17a         
          max. resid. fock norm         =  7.353D-02 for orbital    104a         

 ITERATION  ENERGY          1e-ENERGY        2e-ENERGY     RMS[dD(SAO)]   TOL
   3  -1151.9840472721    -2205.5227942     739.74213307    0.855D-03 0.148D-10
                            Exc = -58.4147038503      Eck =  798.156836922    
                              N = 57.999810519    
                            current damping = 0.500
 
          Norm of current diis error: 0.82833E-01
          max. resid. norm for Fia-block=  9.779D-03 for orbital     21a         
          max. resid. fock norm         =  2.732D-02 for orbital    104a         

 ITERATION  ENERGY          1e-ENERGY        2e-ENERGY     RMS[dD(SAO)]   TOL
   4  -1151.9851082652    -2205.7088065     739.92708442    0.472D-03 0.133D-10
                            Exc = -58.4080376238      Eck =  798.335122040    
                              N = 57.999817308    
                            current damping = 0.550
 
          Norm of current diis error: 0.20334E-01
          max. resid. norm for Fia-block=  3.245D-03 for orbital     21a         
          max. resid. fock norm         =  8.663D-03 for orbital     83a         

 ITERATION  ENERGY          1e-ENERGY        2e-ENERGY     RMS[dD(SAO)]   TOL
   5  -1151.9851412417    -2205.5323072     739.75055211    0.212D-03 0.128D-10
                            Exc = -58.4109864486      Eck =  798.161538560    
                              N = 57.999817524    
                            current damping = 0.600
 
          Norm of current diis error: 0.20630E-01
          max. resid. norm for Fia-block=  1.326D-03 for orbital     21a         
          max. resid. fock norm         =  3.812D-03 for orbital    102a         
          mo-orthogonalization: Cholesky decomposition

 ITERATION  ENERGY          1e-ENERGY        2e-ENERGY     RMS[dD(SAO)]   TOL
   6  -1151.9852015731    -2205.6039489     739.82213347    0.884D-04 0.124D-10
                            Exc = -58.4089764275      Eck =  798.231109897    
                              N = 57.999817705    
                            current damping = 0.650
 
          Norm of current diis error: 0.47014E-02
          max. resid. norm for Fia-block=  4.451D-04 for orbital     17a         
          max. resid. fock norm         =  1.689D-03 for orbital    102a         

 ITERATION  ENERGY          1e-ENERGY        2e-ENERGY     RMS[dD(SAO)]   TOL
   7  -1151.9852052668    -2205.6158862     739.83406707    0.318D-04 0.119D-10
                            Exc = -58.4088278836      Eck =  798.242894955    
                              N = 57.999817842    
                            current damping = 0.500
 
          Norm of current diis error: 0.20521E-02
          max. resid. norm for Fia-block=  2.803D-04 for orbital     21a         
          max. resid. fock norm         =  4.649D-04 for orbital     83a         

 ITERATION  ENERGY          1e-ENERGY        2e-ENERGY     RMS[dD(SAO)]   TOL
   8  -1151.9852059439    -2205.6243806     739.84256084    0.186D-04 0.116D-10
                            Exc = -58.4085558334      Eck =  798.251116675    
                              N = 57.999817974    
                            current damping = 0.350
 
          Norm of current diis error: 0.12604E-02
          max. resid. norm for Fia-block=  1.107D-04 for orbital     24a         
          max. resid. fock norm         =  2.478D-04 for orbital    102a         

 ITERATION  ENERGY          1e-ENERGY        2e-ENERGY     RMS[dD(SAO)]   TOL
   9  -1151.9852061873    -2205.6187207     739.83690062    0.967D-05 0.113D-10
                            Exc = -58.4086928385      Eck =  798.245593459    
                              N = 57.999817914    
                            current damping = 0.400
 
          Norm of current diis error: 0.61017E-03
          max. resid. norm for Fia-block=  5.816D-05 for orbital     21a         
          max. resid. fock norm         =  8.367D-05 for orbital     21a         

 ITERATION  ENERGY          1e-ENERGY        2e-ENERGY     RMS[dD(SAO)]   TOL
  10  -1151.9852062320    -2205.6193419     739.83752178    0.477D-05 0.109D-10
                            Exc = -58.4086597708      Eck =  798.246181550    
                              N = 57.999818038    
                            current damping = 0.450
 
          Norm of current diis error: 0.38715E-03
          max. resid. norm for Fia-block=  2.930D-05 for orbital     26a         
          max. resid. fock norm         =  5.105D-05 for orbital    103a         
          mo-orthogonalization: Cholesky decomposition

 ITERATION  ENERGY          1e-ENERGY        2e-ENERGY     RMS[dD(SAO)]   TOL
  11  -1151.9852062494    -2205.6209928     739.83917268    0.285D-05 0.106D-10
                            Exc = -58.4086350653      Eck =  798.247807741    
                              N = 57.999818013    
                            current damping = 0.300
 
          Norm of current diis error: 0.23138E-03
          max. resid. norm for Fia-block=  1.917D-05 for orbital     18a         
          max. resid. fock norm         =  2.597D-05 for orbital     23a         

 ITERATION  ENERGY          1e-ENERGY        2e-ENERGY     RMS[dD(SAO)]   TOL
  12  -1151.9852062566    -2205.6200516     739.83823155    0.147D-05 0.103D-10
                            Exc = -58.4086504484      Eck =  798.246881997    
                              N = 57.999818014    
                            current damping = 0.350
 
          Norm of current diis error: 0.75358E-04
          max. resid. norm for Fia-block=  5.902D-06 for orbital     26a         
          max. resid. fock norm         =  8.929D-06 for orbital     97a         

 ENERGY & DENSITY CONVERGED !

          Overall gridpoints after grid construction =         48632

 ITERATION  ENERGY          1e-ENERGY        2e-ENERGY     RMS[dD(SAO)]   TOL
  13  -1151.9848858513    -2205.6200016     739.83850190    0.608D-06 0.998D-11
                            Exc = -58.4083330952      Eck =  798.246834995    
                              N = 58.000018109    
                            current damping = 0.400
 
          Norm of current diis error: 0.40593E-04
          max. resid. norm for Fia-block=  3.372D-06 for orbital     24a         
          max. resid. fock norm         =  3.847D-06 for orbital     24a         

 End of SCF iterations

   convergence criteria satisfied after   13 iterations


                  ------------------------------------------ 
                 |  total energy      =  -1151.98488585133  |
                  ------------------------------------------ 
                 :  kinetic energy    =   1147.53866080785  :
                 :  potential energy  =  -2299.52354665918  :
                 :  virial theorem    =      1.99614037901  :
                 :  wavefunction norm =      1.00000000000  :
                  .......................................... 


 orbitals $scfmo  will be written to file mos

    irrep                 25a         26a         27a         28a         29a   
 eigenvalues H         -0.34710    -0.32679    -0.32141    -0.30475    -0.29551
            eV          -9.4452     -8.8924     -8.7462     -8.2927     -8.0412
 occupation              2.0000      2.0000      2.0000      2.0000      2.0000 

    irrep                 30a         31a         32a         33a         34a   
 eigenvalues H         -0.08261    -0.07587    -0.05936    -0.04018    -0.02955
            eV          -2.2479     -2.0647     -1.6152     -1.0934     -0.8042
 
 
 
 
 ==============================================================================
                           electrostatic moments
 ==============================================================================

 reference point for electrostatic moments:    0.00000   0.00000   0.00000

 
              nuc           elec       ->  total
 ------------------------------------------------------------------------------
                          charge      
 ------------------------------------------------------------------------------
          58.000000     -58.000000       0.000000
 
 ------------------------------------------------------------------------------
                       dipole moment  
 ------------------------------------------------------------------------------
   x      -1.723150       1.001777      -0.721373
   y       1.246140      -0.770624       0.475516
   z       0.138061      -0.663074      -0.525013
 
   | dipole moment | =     1.0110 a.u. =     2.5697 debye 
 
 ------------------------------------------------------------------------------
                     quadrupole moment
 ------------------------------------------------------------------------------
  xx     179.567171    -205.883266     -26.316095
  yy     128.636469    -160.803500     -32.167032
  zz     191.960992    -217.268852     -25.307860
  xy      -0.122857      -2.699331      -2.822188
  xz      19.725250     -22.164457      -2.439206
  yz      14.201857     -12.121612       2.080245
 
     1/3  trace=     -27.930329
     anisotropy=       9.791567
 
 ==============================================================================
 


    ------------------------------------------------------------------------
         total  cpu-time :  10.55 seconds
         total wall-time :  10.56 seconds
    ------------------------------------------------------------------------

   ****  ridft : all done  ****


    2018-03-07 23:27:11.801 

fine, there is no data group "$actual step"
next step = rdgrad
 hostname is c-5-39.local
           Doing BLAS/Lapack in the master proc. with  8 CPUs.
           SMPCPUS    set: Shared-memory Parallelization with   8 CPUs.

           SMP Parallelization Reference:
           C. van Wullen, J. Comput. Chem. 32 (2011) 1195--1201

 egrad (c-5-39.local) : TURBOMOLE V7.1 ( ) 5 Apr 2016 at 11:29:09
 Copyright (C) 2016 TURBOMOLE GmbH, Karlsruhe


    2018-03-07 23:27:12.112 




                               e g r a d

                       quantum chemistry group
                       university of karlsruhe
                               germany


             integral direct evaluation of excited state
                     and polarizability gradients
                 and first-order nonadiabatic couplings



          references (see also programs escf, dscf and ridft) 

          review 
          F. Furche and D. Rappoport,  
          "Density functional methods for excited states: 
          equilibrium structure and electronic spectra",
          ch. III of "Computational Photochemistry", ed. by 
          M. Olivucci, vol. 16 of "Theoretical and Computational 
          Chemistry", Elsevier, Amsterdam, 2005.

          RI-J method 
          D. Rappoport and F. Furche, 
          J. Chem. Phys. 122 (2005), 064105.

          Lagrangian method, implementation, benchmarks 
          F. Furche and R. Ahlrichs,
          J. Chem. Phys. 117 (2002), 7433;
          J. Chem. Phys. 121 (2004), 12772 (E).

          Polarizability derivatives, Raman intensities 
          D. Rappoport and F. Furche, 
          J. Chem. Phys. 126 (2007), 201104.

          First-order nonadiabatic couplings 
          R. Send and F. Furche, 
          J. Chem. Phys. 132 (2010), 044107.
                                     




              +--------------------------------------------------+
              | Atomic coordinate, charge and isotop information |
              +--------------------------------------------------+

                    atomic coordinates            atom    charge  isotop
          0.03594354   -0.08622801   -0.10607320    ti    22.000     0
          1.58833648   -2.32220781    2.16502514    o      8.000     0
         -2.97614873   -1.21144500   -2.07797770    o      8.000     0
         -4.51038191   -0.93579228   -2.97191186    h      1.000     0
         -0.90391814    2.47652526    2.32272571    o      8.000     0
         -2.42996479    3.49508418    2.20137562    h      1.000     0
          2.39408485    1.17836697   -2.08345540    o      8.000     0
          3.09825109    0.16141829   -3.41955958    h      1.000     0
          0.50935236   -0.54746930    4.05122520    h      1.000     0
 
       center of nuclear mass  :    0.00000000   -0.00000002    0.00000004
       center of nuclear charge:   -0.02970948    0.02148517    0.00238036

              +--------------------------------------------------+
              |               basis set information              |
              +--------------------------------------------------+

              we will work with the 1s 3p 5d 7f 9g ... basis set
              ...i.e. with spherical basis functions...

   type   atoms  prim   cont   basis
   ---------------------------------------------------------------------------
    ti       1     73     31   def2-SVP   [5s3p2d1f|14s9p5d1f]
    o        4     24     14   def2-SVP   [3s2p1d|7s4p1d]
    h        4      7      5   def2-SVP   [2s1p|4s1p]
   ---------------------------------------------------------------------------
   total:    9    197    107
   ---------------------------------------------------------------------------

   total number of primitive shells          :   46
   total number of contracted shells         :   47
   total number of cartesian basis functions :  116
   total number of SCF-basis functions       :  107


 residuum convergence criterium   :  0.10E-04


 integral neglect threshold       :  0.29E-10
 integral storage threshold THIZE :  0.10E-04
 integral storage threshold THIME :         5

 
             FOUND RI-J FLAG !
 
  
 AUXILIARY BASIS SET information:

              we will work with the 1s 3p 5d 7f 9g ... basis set
              ...i.e. with spherical basis functions...

   type   atoms  prim   cont   basis
   ---------------------------------------------------------------------------
    ti       1    107     89   def2-SVP   [8s5p5d2f3g|19s5p5d3f3g]
    o        4     70     49   def2-SVP   [6s4p3d1f1g|12s5p4d2f1g]
    h        4     16     11   def2-SVP   [3s1p1d|5s2p1d]
   ---------------------------------------------------------------------------
   total:    9    451    329
   ---------------------------------------------------------------------------

   total number of primitive shells          :   67
   total number of contracted shells         :  103
   total number of cartesian basis functions :  410
   total number of SCF-basis functions       :  329

 RPA SINGLET-EXCITATION-CALCULATION 
 
             FOUND DFT-FLAG !
 
 
 FOUND Nonadiabatic Coupling-FLAG !
 Note: the sign convention for NACME changed
 such that <0|d/dx|n> is now computed.

 symmetry group of the molecule :   c1 

 the group has the following generators :
   c1(z)

    1 symmetry operations found

 there are 1 real representations :   a   

 maximum number of shells which are related by symmetry :  1

 IRREP of excited state :   a   
 

 determining totally symmetric integral contributions 
    - equivalent to irreducible tensor elements - 
 which can be formed within each triple of representations :

             representation triple      contributions

              a     a     a               1

    mo occupation :
   irrep   mo's   occupied
    a      107       29
 
 number of basis functions   :          107
 number of occupied orbitals :           29
 
  
           ------------------
           density functional
           ------------------
 PBE0 hybrid functional
 exchange:    3/4 (LDA+PBE) + 1/4 HF
 correlation: LDA (PW) + PBE
 iterations will be done with small grid
  
 spherical integration : Lebedev's spherical grid
 spherical gridsize    :           3
    i.e. gridpoints    :         302
 value for diffuse not defined
 radial integration    : Chebyshev 2nd kind (scaling 3)
 radial gridsize       :           3
 integration cells     :           9
 partition function    : becke
 partition sharpness   :           3
  
 
 Derivatives of quadrature weights will be included
 
  
           ----------------------
               RI - INFORMATION
           ----------------------

 biggest AO integral is expected to be    13.493451081

 Threshold for integral neglect (rithr2):   0.29E-10
 Threshold for integral neglect (rithr1):   0.29E-10

 Contributions to RI integral batches: 
  neglected integral batches:          65
  direct contribution:                  0
  memory contribution:        1063
 Core memory available (ricore)            500 MiB
 Core memory needed for (P|Q) and Cholesky 1 MiB
 Core memory used for integrals            21 MiB
  
 ****************************************
 Memory allocated for RIDFT 22 MiB
 ****************************************
                                            
  MOs are in ASCII format !


 reading orbital data $scfmo  from file mos
 orbital characterization : scfconv=7
 preparing numerical integration ....
          Overall gridpoints after grid construction =         13522
 Ordering of quadrature gridpoints disabled.

 Calculating ground state density on molecular grid

 Integral of ground state density: N =   57.99981801893312    



 number of non-frozen orbitals          :   107
 number of non-frozen occupied orbitals :    29



                        -------------------
                         excitation vector 
                        -------------------


 dimension of super-tensorspace: 2

          IRREP   tensor space dimension   number of roots

           a              2262                   1

 maximum number of Davidson iterations set to   25


 machine precision: 2.22D-16


 logfile sing_a    exists already

 found      1 converged vectors on sing_a   
 read       1 vectors from logfile sing_a   



                       Nonorthonormal Krylov Space Iteration


 total number of roots to be determined:   1


 maximum core memory set to   500 MB,
 corresponding to     2317 vectors in CAO basis


 maximum number of simultaneously treated vectors (including degeneracy):        1


 Iteration IRREP Converged      Max. Euclidean
                 roots          residual norm

    1       a        0        1.811651998973134D-01
 
    2       a        0        4.777510788465511D-02
 
    3       a        0        3.977405514833088D-02
 
    4       a        0        2.963616745419492D-02
 
    5       a        0        2.511782755179028D-02
 
    6       a        0        1.495774460070144D-02
 
    7       a        0        1.081616047351634D-02
 
    8       a        0        6.342545316027587D-03
 
    9       a        0        3.544435168149547D-03
 
   10       a        0        2.334484872431947D-03
 
   11       a        0        1.847554671178225D-03
 
   12       a        0        2.789277101466960D-03
 
   13       a        0        5.016281835979336D-02
 
   14       a        0        2.451612421713375D-02
 
   15       a        0        1.502909378023235D-02
 
   16       a        0        7.115852903008433D-03
 
   17       a        0        4.652348040487050D-03
 
   18       a        0        2.829252343158827D-03
 
   19       a        0        1.207439878033677D-03
 
   20       a        0        6.854484833665974D-04
 
   21       a        0        3.954471310311352D-04
 
   22       a        0        2.194805038787778D-04
 
   23       a        0        1.498478332929335D-04
 
   24       a        0        7.212470988147034D-05
 
   25       a        0        2.502075148174122D-05
 


 Warning! No convergence within  25 iterations.
 Unless you have specified a very low $escfiterlimit/$forceiterlimit, 
 this is a reason to worry!



 IRREP   Vector     Eigenvalue           Euclidean residual norm

  a         1    1.519221185199135D-01    2.502075148174122D-05
 

 Deallocation failure for file unit arrays in <egrad>


========================
 internal module stack: 
------------------------
    egrad
========================

  abnormal termination
 egrad ended abnormally
error in gradient step (1)
