
OPTIMIZATION CYCLE 457
Thu Mar  8 00:06:57 PST 2018
 hostname is c-8-32.local

 frog (c-8-32.local) : TURBOMOLE V7.1 ( ) 5 Apr 2016 at 11:29:09
 Copyright (C) 2016 TURBOMOLE GmbH, Karlsruhe


    2018-03-08 00:06:57.442 


 frog (c-8-32.local) : TURBOMOLE V7.1 ( ) 5 Apr 2016 at 11:29:09
 Copyright (C) 2016 TURBOMOLE GmbH, Karlsruhe


    2018-03-08 00:06:57.442 

 
       `--._            A b     I n i t i o           .-
            `.  M o l e c u l a r   D y n a m i c s  /
              \               .-.       .           / 
               \             /   \     / `.        /  
                `-----._    /     `._.'    `--.__.'   
                        `--'                          
 
 

Reading information from mdmaster                                                                        
 
 =========================================
 TDDFT-SURFACE HOPPING switched on
 Tapavicza, Meyer, and Furche,
 Phys. Chem. Chem. Phys. 13 (2011), 20986.
 =========================================
 
 found keyword $gap_threshold; hop is enforced if gap <  0.500000000000000     
Reading log history information from mdmaster                                                                        
Reading input data from mdlog.2                                                                         
Checking for non-default isotopic masses in control                                                                         
 
No constraints requested.
Reading status from mdmaster                                                                        
Reading actions from mdmaster                                                                        
Getting gradients from control                                                                         
 non-adiabatic coupling vector
 -1.053067604005100E-002  4.412937823278500E-002 -2.172384548025100E-002
  5.560848474515700E-002 -3.624690053127800E-002 -2.603040339145300E-002
  8.376978753387099E-003 -5.453477439747300E-002  4.883052906669500E-002
  2.074559591910600E-002  6.807425709893700E-003 -5.154501819995000E-002
 -9.265639929541700E-003 -6.930278507303800E-003  2.888585135989000E-002
  1.642375813912600E-002  3.708255887986100E-003  1.413902939402300E-003
  4.001365593295900E-002 -2.707551953009500E-002  4.121493827233600E-002
 -3.448021376782700E-003  5.231388074754900E-003  2.060570674011800E-002
  4.764863800287000E-003  1.105750606276100E-002 -1.670748903924300E-003
 leap: Read last 2 entries of RUN.dat
 Old state:           0
 New state:           0
 Propagating Coefficients
 
 ==============Surface Hopping Information================
 
 Probability from           1 to           2 :  4.013173677681971E-002
 Random number   0.817156901330842     
 
 COEFF OF STATE           1 = (-7.940334313881767E-002,2.327536870750826E-002)
 COEFF OF STATE           2 = (0.996563828048324,3.728664058074669E-003)
 
 POPULATION OF STATE           1 =  6.846633690091278E-003
 POPULATION OF STATE           2 =  0.993153366309987     
 SUM OF ALL POPULATIONS =   1.00000000000008     
 
 =========================================================
 
Scaling KE by    1.05982606925    
 
Generating $log data for last completed MD step:                                
t=   18240.0000000                                                              
 0.800076546145E-01 -0.697619232118E-01 -0.412854847930E-01 ti                  
 0.708313274919      -2.55636704461       2.81902779604     o                   
 -2.64150939889      -1.21950927074      -2.38178430985     o                   
 -3.72528106285      -2.53192205461      -3.01778047602     h                   
-0.901337181114       2.70940942887       1.72550528234     o                   
-0.775575512370       4.01552076073      0.163363896796     h                   
  2.53548338644       1.25564879117      -2.02127935792     o                   
  4.44110697935       1.21024960966      -1.79560327857     h                   
  1.00447552451      -2.38153899746       4.36642603744     h                   
  40.0000000000       0.00000000000                                             
ti       -0.328877752957E-03  0.443143030998E-03 -0.534858587299E-03            
o         0.410600262501E-03 -0.874360992785E-03  0.183783559493E-02            
o        -0.179391678560E-03 -0.487853460132E-03 -0.146884250823E-03            
h         0.166347027984E-02  0.182816517487E-02  0.186819627443E-02            
o         0.234613207045E-03 -0.199324991297E-03  0.571986844623E-03            
h         0.112386780240E-02  0.145280427784E-03 -0.305038954844E-02            
o         0.402772270694E-03  0.235541677463E-03 -0.154083431258E-03            
h         0.142742323325E-02 -0.565030306499E-03  0.103556523158E-02            
h        -0.237317812735E-02 -0.141970782445E-02 -0.790984641273E-02            
 0.143933761988      -1152.02910538       0.00000000000                         
 0.428666052649E-01  0.536522593592E-01 -0.205492886496E-01                     
 0.439408371211E-01 -0.218830960588E-01  0.260508439436                         
-0.536595389209E-01 -0.290975243657E-01 -0.418003575967E-01                     
-0.404989467484E-02  0.707745696704E-03 -0.627665765777E-02                     
-0.918759172589E-02 -0.264409111809E-01  0.770351311581E-01                     
 0.637354438237E-02  0.373053922090E-01 -0.608765885669E-01                     
-0.344945800695E-01  0.152942649242E-01 -0.177120164261E-01                     
 0.450265658243E-01 -0.203413877095E-02  0.514045941022E-02                     
-0.368159472055E-01 -0.275039918154E-01 -0.195469121100                         
 

   Time t=   18240.0000000     a.u. (  441.189120000     fs)

   e x e c u t i n g    M D   s t e p   (leapfrog algorithm)

   Number of MD steps left:    1043
 
   Time t=   18280.0000000     a.u. (  442.156640000     fs)

 
Provisional $current data:                                                      
t=   18280.0000000                                                              
 0.660670493325E-01 -0.530193353456E-01 -0.623032795297E-01 ti                  
 0.722326688666      -2.59014097646       2.87824971245     o                   
 -2.64574130076      -1.23742711735      -2.38536650995     o                   
 -3.65521565282      -2.45941174393      -2.93758698820     h                   
-0.891448621042       2.70288697907       1.74415860457     o                   
-0.736170804898       3.98884689782      0.943589048523E-01 h                   
  2.55348665184       1.26423141405      -2.02647101297     o                   
  4.45899532495       1.18941970060      -1.75865691859     h                   
 0.941607276704      -2.41437717020       4.22024430482     h                   
  40.0000000000       0.00000000000                                             
ti       -0.358788850147E-03  0.430903373812E-03 -0.540934217249E-03            
o         0.360662718959E-03 -0.869238453354E-03  0.152419230465E-02            
o        -0.108916304258E-03 -0.461150965285E-03 -0.921949535662E-04            
h         0.180327090463E-02  0.186619522379E-02  0.206393687389E-02            
o         0.254501510224E-03 -0.167868052906E-03  0.480079874558E-03            
h         0.101415752029E-02 -0.686504237687E-03 -0.177597896311E-02            
o         0.463349385476E-03  0.220890652298E-03 -0.133617436845E-03            
h         0.460391698971E-03 -0.536098610329E-03  0.950887120375E-03            
h        -0.161803780287E-02 -0.845154855211E-03 -0.376227392555E-02            
 
    50 energy records for statistics read from mdlog.2                                                                         
       Total Energy (H):
              current value   -1151.88517162    
                    average   -1151.87749743    
         standard deviation   0.128956358736E-01
                      drift  -0.445174768538E-04
        jump from last step  -0.574928889932E-02
 
     Kinetic Energy (H):
              current value   0.143933761988    
                    average   0.128510278185    
         standard deviation   0.344565145376E-01
                      drift   0.169347164954E-02
 avg. quasi-temperature (K)    3864.44195412    
      number of constraints       0
 
         Pressure (GPa):
              current value    0.00000000000    
                    average    0.00000000000    
 
 
   approx integration error   0.872369827878E-01
 
Estimated integration error by reading last steps from mdlog.2                  
 
Generating $log data for last completed MD step:                                
t=   18240.0000000                                                              
 0.800076546145E-01 -0.697619232118E-01 -0.412854847930E-01 ti                  
 0.708313274919      -2.55636704461       2.81902779604     o                   
 -2.64150939889      -1.21950927074      -2.38178430985     o                   
 -3.72528106285      -2.53192205461      -3.01778047602     h                   
-0.901337181114       2.70940942887       1.72550528234     o                   
-0.775575512370       4.01552076073      0.163363896796     h                   
  2.53548338644       1.25564879117      -2.02127935792     o                   
  4.44110697935       1.21024960966      -1.79560327857     h                   
  1.00447552451      -2.38153899746       4.36642603744     h                   
  40.0000000000       0.00000000000                                             
ti       -0.328877752957E-03  0.443143030998E-03 -0.534858587299E-03            
o         0.410600262501E-03 -0.874360992785E-03  0.183783559493E-02            
o        -0.179391678560E-03 -0.487853460132E-03 -0.146884250823E-03            
h         0.166347027984E-02  0.182816517487E-02  0.186819627443E-02            
o         0.234613207045E-03 -0.199324991297E-03  0.571986844623E-03            
h         0.112386780240E-02  0.145280427784E-03 -0.305038954844E-02            
o         0.402772270694E-03  0.235541677463E-03 -0.154083431258E-03            
h         0.142742323325E-02 -0.565030306499E-03  0.103556523158E-02            
h        -0.237317812735E-02 -0.141970782445E-02 -0.790984641273E-02            
 0.143933761988      -1152.02910538       0.00000000000                         
 0.428666052649E-01  0.536522593592E-01 -0.205492886496E-01                     
 0.439408371211E-01 -0.218830960588E-01  0.260508439436                         
-0.536595389209E-01 -0.290975243657E-01 -0.418003575967E-01                     
-0.404989467484E-02  0.707745696704E-03 -0.627665765777E-02                     
-0.918759172589E-02 -0.264409111809E-01  0.770351311581E-01                     
 0.637354438237E-02  0.373053922090E-01 -0.608765885669E-01                     
-0.344945800695E-01  0.152942649242E-01 -0.177120164261E-01                     
 0.450265658243E-01 -0.203413877095E-02  0.514045941022E-02                     
-0.368159472055E-01 -0.275039918154E-01 -0.195469121100                         
 
Generated $current data for new MD step:                                        
t=   18280.0000000                                                              
 0.660670493325E-01 -0.530193353456E-01 -0.623032795297E-01 ti                  
 0.722326688666      -2.59014097646       2.87824971245     o                   
 -2.64574130076      -1.23742711735      -2.38536650995     o                   
 -3.65521565282      -2.45941174393      -2.93758698820     h                   
-0.891448621042       2.70288697907       1.74415860457     o                   
-0.736170804898       3.98884689782      0.943589048523E-01 h                   
  2.55348665184       1.26423141405      -2.02647101297     o                   
  4.45899532495       1.18941970060      -1.75865691859     h                   
 0.941607276704      -2.41437717020       4.22024430482     h                   
  40.0000000000       0.00000000000                                             
ti       -0.358788850147E-03  0.430903373812E-03 -0.540934217249E-03            
o         0.360662718959E-03 -0.869238453354E-03  0.152419230465E-02            
o        -0.108916304258E-03 -0.461150965285E-03 -0.921949535662E-04            
h         0.180327090463E-02  0.186619522379E-02  0.206393687389E-02            
o         0.254501510224E-03 -0.167868052906E-03  0.480079874558E-03            
h         0.101415752029E-02 -0.686504237687E-03 -0.177597896311E-02            
o         0.463349385476E-03  0.220890652298E-03 -0.133617436845E-03            
h         0.460391698971E-03 -0.536098610329E-03  0.950887120375E-03            
h        -0.161803780287E-02 -0.845154855211E-03 -0.376227392555E-02            
 
Logging MD run data ($log) to file mdlog.2                                                                         
Writing data for next step ($current) to mdlog.2                                                                         

    2018-03-08 00:06:58.172 

         total cpu-time :   0.73 seconds
         total wall-time :   0.73 seconds

          ******************************************************



    ------------------------------------------------------------------------
         total  cpu-time :   0.73 seconds
         total wall-time :   0.73 seconds
    ------------------------------------------------------------------------

   ****  frog : all done  ****


    2018-03-08 00:06:58.172 

 operating system is UNIX !
 hostname is c-8-32.local

 ridft (c-8-32.local) : TURBOMOLE V7.1 ( ) 5 Apr 2016 at 11:29:09
 Copyright (C) 2016 TURBOMOLE GmbH, Karlsruhe


    2018-03-08 00:06:58.307 



                                  r i d f t

                        DFT program with RI approximation 
                                for coulomb part 




                                                 
                                 References:     
                                                 
          TURBOMOLE:                             
              R. Ahlrichs, M. Baer, M. Haeser, H. Horn, and
              C. Koelmel
              Electronic structure calculations on workstation
              computers: the program system TURBOMOLE
              Chem. Phys. Lett. 162: 165 (1989)
          Density Functional:                              
              O. Treutler and R. Ahlrichs                      
              Efficient Molecular Numerical Integration Schemes
              J. Chem. Phys. 102: 346 (1995)                   
          Parallel Version:                                
              Performance of parallel TURBOMOLE for Density    
              Functional Calculations                          
              M. v. Arnim and R. Ahlrichs                      
              J. Comp. Chem. 19: 1746 (1998)                   
          RI-J Method:                                     
              Auxiliary Basis Sets to approximate Coulomb      
              Potentials                                       
              Chem. Phys. Lett. 240: 283 (1995)                
              K. Eichkorn, O. Treutler, H. Oehm, M. Haeser     
              and R. Ahlrichs                                  
              Chem. Phys. Lett. 242: 652 (1995)                
                                                           
              Auxiliary Basis Sets for Main Row Atoms and their
              Use to approximate Coulomb Potentials            
              K. Eichkorn, F. Weigend, O. Treutler and         
              R. Ahlrichs                                      
              Theo. Chem. Acc. 97: 119 (1997)                   
                                                           
              Accurate Coulomb-fitting basis sets for H to Rn 
              F. Weigend                                        
              Phys. Chem. Chem. Phys. 8: 1057 (2006)            
                                                           
          Multipole accelerated RI-J (MARI-J):             
              Fast evaluation of the Coulomb potential for     
              electron densities using multipole accelerated   
              resolution of identity approximation             
              M. Sierka, A. Hogekamp and R. Ahlrichs           
              J. Chem. Phys. 118: 9136 (2003)                  
          RI-JK Method:                                     
              A fully direct RI-HF algorithm: Implementation,
              optimised auxiliary basis sets, demonstration of
              accuracy and efficiency                         
              F. Weigend                                      
              Phys. Chem. Chem. Phys. 4: 4285 (2002)           
          Two-component HF and DFT with spin-orbit coupling:  
              Self-consistent treatment of spin-orbit         
              interactions with efficient Hartree-Fock and    
              density functional methods                      
              M. K. Armbruster, F. Weigend, C. van Wüllen and 
              W. Klopper                                      
              Phys. Chem. Chem. Phys. 10: 1748 (2008)         
          Relativistic all-electron 2c calculations           
              An efficient implementation of two-component    
              relativistic exact-decoupling methods for large 
              molecules                                       
              D. Peng, N. Middendorf, F. Weigend, M. Reiher   
              J. Chem. Phys. 138, 184105 (2013)               
                                         


 


              +--------------------------------------------------+
              |      general information about current run       |
              +--------------------------------------------------+

 

 DENSITY CONVERGENCE CHECK SWITCHED ON !
 SCF CONVERGENCE IF RMS(delta[D]) <     0.1000000000E-06

 PBE0 hybrid functional
 exchange:    3/4 (LDA+PBE) + 1/4 HF
 correlation: LDA (PW) + PBE
 A Hybrid-DFT calculation using the RI-J approximation will be carried out.
 Allocatable memory for RI due to $ricore (MB):         500


              +--------------------------------------------------+
              | Atomic coordinate, charge and isotop information |
              +--------------------------------------------------+

                    atomic coordinates            atom    charge  isotop
          0.06606705   -0.05301934   -0.06230328    ti    22.000     0
          0.72232669   -2.59014098    2.87824971    o      8.000     0
         -2.64574130   -1.23742712   -2.38536651    o      8.000     0
         -3.65521565   -2.45941174   -2.93758699    h      1.000     0
         -0.89144862    2.70288698    1.74415860    o      8.000     0
         -0.73617080    3.98884690    0.09435890    h      1.000     0
          2.55348665    1.26423141   -2.02647101    o      8.000     0
          4.45899532    1.18941970   -1.75865692    h      1.000     0
          0.94160728   -2.41437717    4.22024430    h      1.000     0
 
       center of nuclear mass  :    0.00000002   -0.00000001   -0.00000003
       center of nuclear charge:    0.00640825    0.00438715   -0.00116804

              +--------------------------------------------------+
              |               basis set information              |
              +--------------------------------------------------+

              we will work with the 1s 3p 5d 7f 9g ... basis set
              ...i.e. with spherical basis functions...

   type   atoms  prim   cont   basis
   ---------------------------------------------------------------------------
    ti       1     73     31   def2-SVP   [5s3p2d1f|14s9p5d1f]
    o        4     24     14   def2-SVP   [3s2p1d|7s4p1d]
    h        4      7      5   def2-SVP   [2s1p|4s1p]
   ---------------------------------------------------------------------------
   total:    9    197    107
   ---------------------------------------------------------------------------

   total number of primitive shells          :   46
   total number of contracted shells         :   47
   total number of cartesian basis functions :  116
   total number of SCF-basis functions       :  107


 integral neglect threshold       :  0.29E-10
 integral storage threshold THIZE :  0.10E-04
 integral storage threshold THIME :         5

 RI-J AUXILIARY BASIS SET information:

              we will work with the 1s 3p 5d 7f 9g ... basis set
              ...i.e. with spherical basis functions...

   type   atoms  prim   cont   basis
   ---------------------------------------------------------------------------
    ti       1    107     89   def2-SVP   [8s5p5d2f3g|19s5p5d3f3g]
    o        4     70     49   def2-SVP   [6s4p3d1f1g|12s5p4d2f1g]
    h        4     16     11   def2-SVP   [3s1p1d|5s2p1d]
   ---------------------------------------------------------------------------
   total:    9    451    329
   ---------------------------------------------------------------------------

   total number of primitive shells          :   67
   total number of contracted shells         :  103
   total number of cartesian basis functions :  410
   total number of SCF-basis functions       :  329


 symmetry group of the molecule :   c1 

 the group has the following generators :
   c1(z)

    1 symmetry operations found

 there are 1 real representations :   a   

 maximum number of shells which are related by symmetry :  1


    mo occupation :
   irrep   mo's   occupied
    a      107       29
 
 number of basis functions   :          107
 number of occupied orbitals :           29
 
  
           ------------------
           density functional
           ------------------
 PBE0 hybrid functional
 exchange:    3/4 (LDA+PBE) + 1/4 HF
 correlation: LDA (PW) + PBE
 iterations will be done with small grid
  
 spherical integration : Lebedev's spherical grid
 spherical gridsize    :           3
    i.e. gridpoints    :         302
 value for diffuse not defined
 radial integration    : Chebyshev 2nd kind (scaling 3)
 radial gridsize       :           3
 integration cells     :           9
 partition function    : becke
 partition sharpness   :           3
  

 biggest AO integral is expected to be    13.493451081
  
           ------------------------
               RI-J - INFORMATION
           ------------------------
 Contributions to RI integral batches: 
  neglected integral batches:          72
  direct contribution:                  0
  memory contribution:        1056
 Memory core needed for (P|Q) and Cholesky      1 MByte
 Memory core minimum needed except of (P|Q)     1 MByte
 Total minimum memory core needed (sum)         1 MByte
  
 ****************************************
 Memory allocated for RI-J    22 MByte
 ****************************************
                                            

          ------------------------
          nuclear repulsion energy  :   311.091039247    
          ------------------------

 
          -----------------
          -S,T+V- integrals
          -----------------

 1e-integrals will be neglected if expon. factor < 0.288100E-11
 
   Difference densities algorithm switched on.
   The maximal number of linear combinations of
   difference densities is          20 .

 DIIS switched on: error vector is FDS-SDF
 Max. Iterations for DIIS is     :   4
 DIIS matrix (see manual) 
    Scaling factor of diagonals  :  1.200
    threshold for scaling factor :  0.000

 scf convergence criterion : increment of total energy < .1000000D-06
                  and increment of one-electron energy < .1000000D-03

  MOs are in ASCII format !


 automatic virtual orbital shift switched on 
      shift if e(lumo)-e(homo) < 0.10000000    


 reading orbital data $scfmo  from file mos
 orbital characterization : scfconv=7

 DSCF restart information will be dumped onto file mos


 Starting SCF iterations

          Overall gridpoints after grid construction =         13519

 ITERATION  ENERGY          1e-ENERGY        2e-ENERGY     RMS[dD(SAO)]   TOL
   1  -1151.9203839167    -2199.1152777     736.10385457    0.000D+00 0.287D-10
                            Exc = -58.5292789688     Coul =  813.422221531    
                            exK = -18.7890879965    
                              N = 57.999310373    
                            current damping = 0.700
 
          max. resid. norm for Fia-block=  5.141D-02 for orbital     15a         
          max. resid. fock norm         =  2.116D-01 for orbital     87a         

 ITERATION  ENERGY          1e-ENERGY        2e-ENERGY     RMS[dD(SAO)]   TOL
   2  -1151.9273642711    -2199.0894592     736.07105567    0.156D-02 0.182D-10
                            Exc = -58.5557583447      Eck =  794.626814016    
                              N = 57.999340071    
                            current damping = 0.650
 
          Norm of current diis error: 0.96017E-01
          max. resid. norm for Fia-block=  2.170D-02 for orbital     14a         
          max. resid. fock norm         =  1.043D-01 for orbital     93a         

 ITERATION  ENERGY          1e-ENERGY        2e-ENERGY     RMS[dD(SAO)]   TOL
   3  -1151.9277624310    -2199.6063718     736.58757011    0.983D-03 0.149D-10
                            Exc = -58.5423290364      Eck =  795.129899146    
                              N = 57.999320317    
                            current damping = 0.600
 
          Norm of current diis error: 0.95432E-01
          max. resid. norm for Fia-block=  8.386D-03 for orbital     14a         
          max. resid. fock norm         =  3.595D-02 for orbital     95a         

 ITERATION  ENERGY          1e-ENERGY        2e-ENERGY     RMS[dD(SAO)]   TOL
   4  -1151.9289293438    -2199.1644161     736.14444748    0.508D-03 0.137D-10
                            Exc = -58.5510348057      Eck =  794.695482287    
                              N = 57.999330926    
                            current damping = 0.650
 
          Norm of current diis error: 0.29330E-01
          max. resid. norm for Fia-block=  3.357D-03 for orbital     14a         
          max. resid. fock norm         =  1.346D-02 for orbital    107a         

 ITERATION  ENERGY          1e-ENERGY        2e-ENERGY     RMS[dD(SAO)]   TOL
   5  -1151.9290111814    -2199.3291410     736.30909057    0.229D-03 0.133D-10
                            Exc = -58.5493456551      Eck =  794.858436227    
                              N = 57.999339117    
                            current damping = 0.700
 
          Norm of current diis error: 0.19234E-01
          max. resid. norm for Fia-block=  1.300D-03 for orbital     14a         
          max. resid. fock norm         =  5.918D-03 for orbital     96a         
          mo-orthogonalization: Cholesky decomposition

 ITERATION  ENERGY          1e-ENERGY        2e-ENERGY     RMS[dD(SAO)]   TOL
   6  -1151.9290602732    -2199.2913338     736.27123424    0.835D-04 0.128D-10
                            Exc = -58.5513659375      Eck =  794.822600176    
                              N = 57.999337788    
                            current damping = 0.750
 
          Norm of current diis error: 0.48428E-02
          max. resid. norm for Fia-block=  6.297D-04 for orbital     14a         
          max. resid. fock norm         =  2.502D-03 for orbital     96a         

 ITERATION  ENERGY          1e-ENERGY        2e-ENERGY     RMS[dD(SAO)]   TOL
   7  -1151.9290638882    -2199.2761041     736.25600094    0.327D-04 0.124D-10
                            Exc = -58.5510541483      Eck =  794.807055091    
                              N = 57.999337243    
                            current damping = 0.600
 
          Norm of current diis error: 0.20561E-02
          max. resid. norm for Fia-block=  2.695D-04 for orbital     19a         
          max. resid. fock norm         =  9.430D-04 for orbital     96a         

 ITERATION  ENERGY          1e-ENERGY        2e-ENERGY     RMS[dD(SAO)]   TOL
   8  -1151.9290645852    -2199.2698024     736.24969862    0.175D-04 0.120D-10
                            Exc = -58.5511989188      Eck =  794.800897536    
                              N = 57.999337457    
                            current damping = 0.450
 
          Norm of current diis error: 0.10383E-02
          max. resid. norm for Fia-block=  9.439D-05 for orbital     19a         
          max. resid. fock norm         =  3.789D-04 for orbital     96a         

 ITERATION  ENERGY          1e-ENERGY        2e-ENERGY     RMS[dD(SAO)]   TOL
   9  -1151.9290647725    -2199.2757490     736.25564497    0.797D-05 0.117D-10
                            Exc = -58.5512563465      Eck =  794.806901319    
                              N = 57.999337498    
                            current damping = 0.500
 
          Norm of current diis error: 0.36604E-03
          max. resid. norm for Fia-block=  4.176D-05 for orbital     19a         
          max. resid. fock norm         =  1.153D-04 for orbital     96a         

 ITERATION  ENERGY          1e-ENERGY        2e-ENERGY     RMS[dD(SAO)]   TOL
  10  -1151.9290648025    -2199.2728209     736.25271683    0.354D-05 0.112D-10
                            Exc = -58.5512430108      Eck =  794.803959836    
                              N = 57.999337543    
                            current damping = 0.550
 
          Norm of current diis error: 0.19796E-03
          max. resid. norm for Fia-block=  2.298D-05 for orbital     26a         
          max. resid. fock norm         =  5.048D-05 for orbital     96a         
          mo-orthogonalization: Cholesky decomposition

 ITERATION  ENERGY          1e-ENERGY        2e-ENERGY     RMS[dD(SAO)]   TOL
  11  -1151.9290648086    -2199.2734800     736.25337596    0.189D-05 0.109D-10
                            Exc = -58.5512170517      Eck =  794.804593007    
                              N = 57.999337502    
                            current damping = 0.600
 
          Norm of current diis error: 0.13043E-03
          max. resid. norm for Fia-block=  1.108D-05 for orbital     19a         
          max. resid. fock norm         =  1.547D-05 for orbital     21a         

 ITERATION  ENERGY          1e-ENERGY        2e-ENERGY     RMS[dD(SAO)]   TOL
  12  -1151.9290648113    -2199.2736560     736.25355193    0.804D-06 0.106D-10
                            Exc = -58.5512305670      Eck =  794.804782499    
                              N = 57.999337536    
                            current damping = 0.450
 
          Norm of current diis error: 0.55628E-04
          max. resid. norm for Fia-block=  4.785D-06 for orbital     20a         
          max. resid. fock norm         =  8.403D-06 for orbital     26a         

 ENERGY & DENSITY CONVERGED !

          Overall gridpoints after grid construction =         48635

 ITERATION  ENERGY          1e-ENERGY        2e-ENERGY     RMS[dD(SAO)]   TOL
  13  -1151.9288748794    -2199.2736724     736.25375827    0.510D-06 0.101D-10
                            Exc = -58.5510455004      Eck =  794.804803768    
                              N = 57.999984007    
                            current damping = 0.300
 
          Norm of current diis error: 0.37283E-04
          max. resid. norm for Fia-block=  3.740D-06 for orbital     22a         
          max. resid. fock norm         =  4.611D-06 for orbital     22a         

 End of SCF iterations

   convergence criteria satisfied after   13 iterations


                  ------------------------------------------ 
                 |  total energy      =  -1151.92887487940  |
                  ------------------------------------------ 
                 :  kinetic energy    =   1148.15584683447  :
                 :  potential energy  =  -2300.08472171387  :
                 :  virial theorem    =      1.99672459982  :
                 :  wavefunction norm =      1.00000000000  :
                  .......................................... 


 orbitals $scfmo  will be written to file mos

    irrep                 25a         26a         27a         28a         29a   
 eigenvalues H         -0.34897    -0.32097    -0.30687    -0.30182    -0.30063
            eV          -9.4960     -8.7342     -8.3505     -8.2131     -8.1806
 occupation              2.0000      2.0000      2.0000      2.0000      2.0000 

    irrep                 30a         31a         32a         33a         34a   
 eigenvalues H         -0.09354    -0.08932    -0.06854    -0.05617    -0.03261
            eV          -2.5454     -2.4306     -1.8651     -1.5285     -0.8874
 
 
 
 
 ==============================================================================
                           electrostatic moments
 ==============================================================================

 reference point for electrostatic moments:    0.00000   0.00000   0.00000

 
              nuc           elec       ->  total
 ------------------------------------------------------------------------------
                          charge      
 ------------------------------------------------------------------------------
          58.000000     -58.000000       0.000000
 
 ------------------------------------------------------------------------------
                       dipole moment  
 ------------------------------------------------------------------------------
   x       0.371679       0.377237       0.748916
   y       0.254455       0.096884       0.351339
   z      -0.067746      -0.235296      -0.303042
 
   | dipole moment | =     0.8810 a.u. =     2.2393 debye 
 
 ------------------------------------------------------------------------------
                     quadrupole moment
 ------------------------------------------------------------------------------
  xx     153.461260    -177.872918     -24.411658
  yy     166.416867    -194.793357     -28.376490
  zz     198.610805    -229.322123     -30.711319
  xy      26.779945     -24.709223       2.070722
  xz      19.995102     -19.147900       0.847202
  yz     -23.415412      23.959131       0.543719
 
     1/3  trace=     -27.833156
     anisotropy=       6.806785
 
 ==============================================================================
 


    ------------------------------------------------------------------------
         total  cpu-time :  10.63 seconds
         total wall-time :  10.73 seconds
    ------------------------------------------------------------------------

   ****  ridft : all done  ****


    2018-03-08 00:07:08.940 

fine, there is no data group "$actual step"
next step = rdgrad
 hostname is c-8-32.local
           Doing BLAS/Lapack in the master proc. with  8 CPUs.
           SMPCPUS    set: Shared-memory Parallelization with   8 CPUs.

           SMP Parallelization Reference:
           C. van Wullen, J. Comput. Chem. 32 (2011) 1195--1201

 egrad (c-8-32.local) : TURBOMOLE V7.1 ( ) 5 Apr 2016 at 11:29:09
 Copyright (C) 2016 TURBOMOLE GmbH, Karlsruhe


    2018-03-08 00:07:09.175 




                               e g r a d

                       quantum chemistry group
                       university of karlsruhe
                               germany


             integral direct evaluation of excited state
                     and polarizability gradients
                 and first-order nonadiabatic couplings



          references (see also programs escf, dscf and ridft) 

          review 
          F. Furche and D. Rappoport,  
          "Density functional methods for excited states: 
          equilibrium structure and electronic spectra",
          ch. III of "Computational Photochemistry", ed. by 
          M. Olivucci, vol. 16 of "Theoretical and Computational 
          Chemistry", Elsevier, Amsterdam, 2005.

          RI-J method 
          D. Rappoport and F. Furche, 
          J. Chem. Phys. 122 (2005), 064105.

          Lagrangian method, implementation, benchmarks 
          F. Furche and R. Ahlrichs,
          J. Chem. Phys. 117 (2002), 7433;
          J. Chem. Phys. 121 (2004), 12772 (E).

          Polarizability derivatives, Raman intensities 
          D. Rappoport and F. Furche, 
          J. Chem. Phys. 126 (2007), 201104.

          First-order nonadiabatic couplings 
          R. Send and F. Furche, 
          J. Chem. Phys. 132 (2010), 044107.
                                     




              +--------------------------------------------------+
              | Atomic coordinate, charge and isotop information |
              +--------------------------------------------------+

                    atomic coordinates            atom    charge  isotop
          0.06606705   -0.05301934   -0.06230328    ti    22.000     0
          0.72232669   -2.59014098    2.87824971    o      8.000     0
         -2.64574130   -1.23742712   -2.38536651    o      8.000     0
         -3.65521565   -2.45941174   -2.93758699    h      1.000     0
         -0.89144862    2.70288698    1.74415860    o      8.000     0
         -0.73617080    3.98884690    0.09435890    h      1.000     0
          2.55348665    1.26423141   -2.02647101    o      8.000     0
          4.45899532    1.18941970   -1.75865692    h      1.000     0
          0.94160728   -2.41437717    4.22024430    h      1.000     0
 
       center of nuclear mass  :    0.00000002   -0.00000001   -0.00000003
       center of nuclear charge:    0.00640825    0.00438715   -0.00116804

              +--------------------------------------------------+
              |               basis set information              |
              +--------------------------------------------------+

              we will work with the 1s 3p 5d 7f 9g ... basis set
              ...i.e. with spherical basis functions...

   type   atoms  prim   cont   basis
   ---------------------------------------------------------------------------
    ti       1     73     31   def2-SVP   [5s3p2d1f|14s9p5d1f]
    o        4     24     14   def2-SVP   [3s2p1d|7s4p1d]
    h        4      7      5   def2-SVP   [2s1p|4s1p]
   ---------------------------------------------------------------------------
   total:    9    197    107
   ---------------------------------------------------------------------------

   total number of primitive shells          :   46
   total number of contracted shells         :   47
   total number of cartesian basis functions :  116
   total number of SCF-basis functions       :  107


 residuum convergence criterium   :  0.10E-04


 integral neglect threshold       :  0.29E-10
 integral storage threshold THIZE :  0.10E-04
 integral storage threshold THIME :         5

 
             FOUND RI-J FLAG !
 
  
 AUXILIARY BASIS SET information:

              we will work with the 1s 3p 5d 7f 9g ... basis set
              ...i.e. with spherical basis functions...

   type   atoms  prim   cont   basis
   ---------------------------------------------------------------------------
    ti       1    107     89   def2-SVP   [8s5p5d2f3g|19s5p5d3f3g]
    o        4     70     49   def2-SVP   [6s4p3d1f1g|12s5p4d2f1g]
    h        4     16     11   def2-SVP   [3s1p1d|5s2p1d]
   ---------------------------------------------------------------------------
   total:    9    451    329
   ---------------------------------------------------------------------------

   total number of primitive shells          :   67
   total number of contracted shells         :  103
   total number of cartesian basis functions :  410
   total number of SCF-basis functions       :  329

 RPA SINGLET-EXCITATION-CALCULATION 
 
             FOUND DFT-FLAG !
 
 
 FOUND Nonadiabatic Coupling-FLAG !
 Note: the sign convention for NACME changed
 such that <0|d/dx|n> is now computed.

 symmetry group of the molecule :   c1 

 the group has the following generators :
   c1(z)

    1 symmetry operations found

 there are 1 real representations :   a   

 maximum number of shells which are related by symmetry :  1

 IRREP of excited state :   a   
 

 determining totally symmetric integral contributions 
    - equivalent to irreducible tensor elements - 
 which can be formed within each triple of representations :

             representation triple      contributions

              a     a     a               1

    mo occupation :
   irrep   mo's   occupied
    a      107       29
 
 number of basis functions   :          107
 number of occupied orbitals :           29
 
  
           ------------------
           density functional
           ------------------
 PBE0 hybrid functional
 exchange:    3/4 (LDA+PBE) + 1/4 HF
 correlation: LDA (PW) + PBE
 iterations will be done with small grid
  
 spherical integration : Lebedev's spherical grid
 spherical gridsize    :           3
    i.e. gridpoints    :         302
 value for diffuse not defined
 radial integration    : Chebyshev 2nd kind (scaling 3)
 radial gridsize       :           3
 integration cells     :           9
 partition function    : becke
 partition sharpness   :           3
  
 
 Derivatives of quadrature weights will be included
 
  
           ----------------------
               RI - INFORMATION
           ----------------------

 biggest AO integral is expected to be    13.493451081

 Threshold for integral neglect (rithr2):   0.29E-10
 Threshold for integral neglect (rithr1):   0.29E-10

 Contributions to RI integral batches: 
  neglected integral batches:          67
  direct contribution:                  0
  memory contribution:        1061
 Core memory available (ricore)            500 MiB
 Core memory needed for (P|Q) and Cholesky 1 MiB
 Core memory used for integrals            21 MiB
  
 ****************************************
 Memory allocated for RIDFT 22 MiB
 ****************************************
                                            
  MOs are in ASCII format !


 reading orbital data $scfmo  from file mos
 orbital characterization : scfconv=7
 preparing numerical integration ....
          Overall gridpoints after grid construction =         13519
 Ordering of quadrature gridpoints disabled.

 Calculating ground state density on molecular grid

 Integral of ground state density: N =   57.99933753568693    



 number of non-frozen orbitals          :   107
 number of non-frozen occupied orbitals :    29



                        -------------------
                         excitation vector 
                        -------------------


 dimension of super-tensorspace: 2

          IRREP   tensor space dimension   number of roots

           a              2262                   1

 maximum number of Davidson iterations set to   25


 machine precision: 2.22D-16


 logfile sing_a    exists already

 found      1 converged vectors on sing_a   
 read       1 vectors from logfile sing_a   



                       Nonorthonormal Krylov Space Iteration


 total number of roots to be determined:   1


 maximum core memory set to   500 MB,
 corresponding to     2317 vectors in CAO basis


 maximum number of simultaneously treated vectors (including degeneracy):        1


 Iteration IRREP Converged      Max. Euclidean
                 roots          residual norm

    1       a        0        1.436971762576293D-01
 
    2       a        0        4.271422653481440D-02
 
    3       a        0        2.839874996621870D-02
 
    4       a        0        1.302217014743358D-02
 
    5       a        0        1.719453686060863D-02
 
    6       a        0        1.689166553714597D-02
 
    7       a        0        1.791960830405712D-02
 
    8       a        0        1.826943869647258D-02
 
    9       a        0        1.786280140693733D-02
 
   10       a        0        1.514578238271632D-02
 
   11       a        0        1.380594282048116D-02
 
   12       a        0        1.251511207227776D-02
 
   13       a        0        9.556834811235893D-03
 
   14       a        0        7.037312373826136D-03
 
   15       a        0        3.869964513916023D-03
 
   16       a        0        3.082302312149000D-03
 
   17       a        0        1.959595309246138D-03
 
   18       a        0        1.123294389091983D-03
 
   19       a        0        4.909808682219550D-04
 
   20       a        0        2.631580191779797D-04
 
   21       a        0        1.796075073680819D-04
 
   22       a        0        1.003284461643686D-04
 
   23       a        0        4.503209915483124D-05
 
   24       a        0        3.105363896293356D-05
 
   25       a        0        2.071767279969795D-05
 


 Warning! No convergence within  25 iterations.
 Unless you have specified a very low $escfiterlimit/$forceiterlimit, 
 this is a reason to worry!



 IRREP   Vector     Eigenvalue           Euclidean residual norm

  a         1    1.429351408684480D-01    2.071767279969795D-05
 

 Deallocation failure for file unit arrays in <egrad>


========================
 internal module stack: 
------------------------
    egrad
========================

  abnormal termination
 egrad ended abnormally
error in gradient step (1)
