 operating system is UNIX !

 force (missouri) : TURBOMOLE V7.2 ( 21454 ) 4 Oct 2017 at 12:24:43
 Copyright (C) 2017 TURBOMOLE GmbH, Karlsruhe


    2018-02-07 14:21:24.169 



                             T U R B O M O L E   

                          a o f o r c e - program

                        using direct algorithms for

                       SCF level calculations of
                         * harmonic force constants
                         * hyperpolarizabilities
                         * IR and RAMAN intensities
                         * VCD intensities

                       DFT level calculations of
                         * harmonic force constants
                         * IR intensities
                                                   
       Stephan Boecker, Peter Deglmann, Filipp Furche and Marco Haeser
                          Quantum Chemistry Group
                          Universitaet  Karlsruhe
                                   Germany

 
 
 
 
     References :
 
       RI-J implementation:
         Peter Deglmann, Klaus May, Filipp Furche, Reinhart Ahlrichs
                 Chem. Phys. Lett. 384:103 (2004)
 
       Efficiency, technical details:
         Peter Deglmann, Filipp Furche, Reinhart Ahlrichs
                 Chem. Phys. Lett. 362:511 (2002)
 
       Search of lowest eigenvalues by iterative diagonalization:
         Peter Deglmann, Filipp Furche
                 J. Chem. Phys. 117:9535 (2002)
 
       Vibrational circular dichroism implementation:
        Kevin Reiter, Michael Kuehn, Florian Weigend
                 J. Chem. Phys. 146:054102 (2017)  
 
 


              +--------------------------------------------------+
              | Atomic coordinate, charge and isotop information |
              +--------------------------------------------------+

                    atomic coordinates            atom    charge  isotop
        -12.83202740    6.71970485   -0.00604271    o      8.000     0
        -10.80650799    5.57110381   -0.00385515    c      6.000     0
         -8.36198721    6.81363152   -0.00915063    c      6.000     0
         -6.14906506    5.45490310   -0.00654863    c      6.000     0
         -6.11526911    2.73212826    0.00161957    c      6.000     0
         -8.46333803    1.42389389    0.00716915    c      6.000     0
        -10.66123886    2.77371688    0.00448341    c      6.000     0
         -3.03107753    6.52192531   -0.01174381    s     16.000     0
         -2.00473443    3.33820867   -0.00282513    c      6.000     0
         -3.83381402    1.65017033    0.00341566    n      7.000     0
          0.60052907    2.71927302   -0.00256824    c      6.000     0
          1.41322631   -0.55092500    0.00674250    s     16.000     0
          2.43485920    4.36549966   -0.00863774    n      7.000     0
          4.78948512    3.27701439   -0.00695775    c      6.000     0
          4.69307878    0.35189760    0.00191174    c      6.000     0
          5.68509880   -0.36193176    1.68997508    h      1.000     0
          5.68292038   -0.37208823   -1.68310260    h      1.000     0
          6.78945729    4.38647329   -0.01166079    o      8.000     0
         -8.39328850    8.87904963   -0.01529397    h      1.000     0
        -13.79775144    1.06154888    0.01157913    br    35.000     0
         -8.45594638   -0.64076719    0.01358020    h      1.000     0
 
       center of nuclear mass  :   -5.44332432    2.92404795    0.00064864
       center of nuclear charge:   -5.13848240    2.96824981    0.00032233

              +--------------------------------------------------+
              |               basis set information              |
              +--------------------------------------------------+

              we will work with the 1s 3p 5d 7f 9g ... basis set
              ...i.e. with spherical basis functions...

   type   atoms  prim   cont   basis
   ---------------------------------------------------------------------------
    o        2     24     14   def2-SV(P)   [3s2p1d|7s4p1d]
    c       10     24     14   def2-SV(P)   [3s2p1d|7s4p1d]
    s        2     36     18   def2-SV(P)   [4s3p1d|10s7p1d]
    n        2     24     14   def2-SV(P)   [3s2p1d|7s4p1d]
    h        4      4      2   def2-SV(P)   [2s|4s]
    br       1     74     32   def2-SV(P)   [5s4p3d|14s10p6d]
   ---------------------------------------------------------------------------
   total:   21    498    272
   ---------------------------------------------------------------------------

   total number of primitive shells          :   88
   total number of contracted shells         :  120
   total number of cartesian basis functions :  291
   total number of SCF-basis functions       :  272

 
             FOUND RI-J FLAG !
 

 NOTE: THIS IS A PRELIMINARY IMPLEMENTATION. THE RI APPROXIMATION IS
       PRESENTLY USED FOR CPKS CONTRIBUTIONS TO THE HESSIAN ONLY! SEE
       MANUAL FOR FURTHER DETAILS.

  
 AUXILIARY BASIS SET information:

              we will work with the 1s 3p 5d 7f 9g ... basis set
              ...i.e. with spherical basis functions...

   type   atoms  prim   cont   basis
   ---------------------------------------------------------------------------
    o        2     70     49   def2-SV(P)   [6s4p3d1f1g|12s5p4d2f1g]
    c       10     70     49   def2-SV(P)   [6s4p3d1f1g|12s5p4d2f1g]
    s        2     77     51   def2-SV(P)   [8s4p3d1f1g|14s5p5d2f1g]
    n        2     70     49   def2-SV(P)   [6s4p3d1f1g|12s5p4d2f1g]
    h        4     16     11   def2-SV(P)   [3s1p1d|5s2p1d]
    br       1     89     58   def2-SV(P)   [8s4p3d2f1g|19s5p5d3f1g]
   ---------------------------------------------------------------------------
   total:   21   1287    890
   ---------------------------------------------------------------------------

   total number of primitive shells          :  140
   total number of contracted shells         :  282
   total number of cartesian basis functions : 1101
   total number of SCF-basis functions       :  890


 symmetry group of the molecule :   c1 

 the group has the following generators :
   c1(z)

    1 symmetry operations found

 there are 1 real representations :   a   

 maximum number of shells which are related by symmetry :  1


 determining totally symmetric integral contributions 
    - equivalent to irreducible tensor elements - 
 which can be formed within each triple of representations :

             representation triple      contributions

              a     a     a               1

    mo occupation :
   irrep   mo's   occupied
    a      272       81
 
 number of basis functions   :                    272
 number of occupied orbitals :                     81
 
  MOs are in ASCII format !


 reading orbital data $scfmo  from file mos
 orbital characterization : scfconv=7
 time elapsed for calculating density matrices :   0.004 sec

 number of non-frozen orbitals          :   272
 number of non-frozen occupied orbitals :    81
 Blocking parameters 
 shells:
    index      start shell   last shell  start bf    last bf    #bf 
       1             1         119             1        285    285
       2           120         120           286        291      6
  
           ----------------------
               RI - INFORMATION
           ----------------------

 biggest AO integral is expected to be    21.668154127

 Threshold for integral neglect (rithr2):   0.86E-11
 Threshold for integral neglect (rithr1):   0.86E-11

 Contributions to RI integral batches: 
  neglected integral batches:                  2152
  direct contribution:                            0
  memory contribution:                  5108
 Core memory available (ricore):              5000 MiB
 Core memory needed for (P|Q) and Cholesky:      7 MiB
 Core memory used for integrals:               246 MiB
 
 ****************************************
 Memory allocated for RIDFT: 252 MiB
 ****************************************
 
  
           ------------------
           density functional
           ------------------
 PBE0 hybrid functional
 exchange:    3/4 (LDA+PBE) + 1/4 HF
 correlation: LDA (PW) + PBE

 iterations will be done with small grid
  
 spherical integration : Lebedev's spherical grid
 spherical gridsize    :                     5
    i.e. gridpoints    :                   590
 value for diffuse not defined
 radial integration    : Chebyshev 2nd kind (scaling 3)
 radial gridsize       :                     8
 integration cells     :                    21
 partition function    : becke
 partition sharpness   :                     3
  
 
 Derivatives of quadrature weights will be included
 
          Overall gridpoints after grid construction =        375906
 Ordering of quadrature gridpoints disabled.
 
 
 
 
 OCCUPIED-OCCUPIED TENSOR SPACES :

          IRREP   tensor space dimension   number of roots

           a              6561                  57
 
 OCCUPIED-VIRTUAL TENSOR SPACES :

          IRREP   tensor space dimension   number of roots

           a             15471                  57
 
 
 
 
 CONSTRUCTING integral bounds

 setting up bound for integral derivative estimation

 increment for numerical differentiation : 0.00050000
 
 machine precision:   2.220446049250313E-016

 integral neglect threshold       :  0.10E-09
 integral storage threshold THIZE :  0.10E-04
 integral storage threshold THIME :         5

 
 
 
 PREPARING NUMERICAL INTEGRATION
 
 Remaining core memory for DFT =                   381 MB
 
 Memory needed per atom    =                   995 KiB
 
     i. e.                    21 atoms per loop

 Calculating ground state density on molecular grid

 Integral of ground state density: N =   162.0000032458256    


 
 
 CONSTRUCTING first deriv. of <mu|x,y,z|nu> -> Dip. deriv.
  dipole integral derivatives will be neglected if
  expon. factor <0.171821E-11
      ...terminated. cpu:       0.02       wall:       0.02
 
 
 
 
 CONSTRUCTING first deriv. of  <mu|nu>
                               <mu|h|nu>    -> RHS
              second deriv. of <mu|nu>      -> Hessian
                               <mu|h|nu>    -> Hessian
                               nucl. rep.   -> Hessian
     integrals are neglected if expon. factor <  1.718213058419244E-013
      ...terminated. cpu:       0.75       wall:       0.75
 
 
 
 
 CONSTRUCTING second deriv. of 2e energy    -> Hessian
   treating Coulomb (and exchange) contribution
     integrals will be neglected if total contribution <  1.718213058419244E-009
      ...terminated. cpu:     128.44       wall:     128.47
   treating exchange-correlation contribution
      ...terminated. cpu:     239.64       wall:     239.67
 
 
 
 
 CONSTRUCTING S(i,j)xi
      ...terminated. cpu:       0.03       wall:       0.03
 
 
 
 
 CONSTRUCTING <i|x,y,z|j>*S(i,j)xi          -> Dip. deriv.
      ...terminated. cpu:       0.02       wall:       0.02
 
 
 
 
 CONSTRUCTING epsilon(i)*S(i,j)xi*S(i,j)chi -> Hessian
      ...terminated. cpu:       0.00       wall:       0.00
 
 
 
 
 CONSTRUCTING G(a,i)[S(k,l)xi]              -> RHS
              G(i,j)[S(k,l)xi]*S(i,j)chi    -> Hessian
 
         Maximum core memory set to                    500 MB
         This corresponds to                   763 vectors in CAO basis
      ...terminated. cpu:     422.08       wall:     422.12
 
 
 
 
 CONSTRUCTING G(mu,nu)[D(kap,lam)]xi
 
          Maximum core memory set to                    500 MB
          Atoms treated simultaneously :                    21
      ...terminated. cpu:     274.10       wall:     274.13
 
 
 
 
 CONSTRUCTING F(a,i)xi                      -> RHS
              F(i,j)xi*S(i,j)chi            -> Hessian
 
        Maximum core memory set to                   500 MB
        This corresponds to                  1130 vectors in CAO basis
      ...terminated. cpu:       1.04       wall:       1.04
 
 
 
 
 CONSTRUCTING epsilon(i)*S(a,i)xi           -> RHS
      ...terminated. cpu:       0.20       wall:       0.20
 
 
 
 
 SOLVING CPHF equations
 
 Residuum convergence criterium   :  1.000000000000000E-005
 
 Maximum number of Davidson iterations set to                    25
  Switching to small grid
        preparing numerical integration ....
          Overall gridpoints after grid construction =        123169

 Calculating ground state density on molecular grid

 Integral of ground state density: N =   162.0000462539040    




                       Nonorthonormal Krylov Space Iteration


 total number of roots to be determined:  57


 maximum core memory set to   500 MB,
 corresponding to      754 vectors in CAO basis


 maximum number of simultaneously treated vectors (including degeneracy):       57


 Iteration IRREP Converged      Max. Euclidean
                 roots          residual norm

    1       a        0        8.291019141669842D-02
 
    2       a        0        1.125841102290317D-02
 
    3       a        0        1.322390562456574D-03
 
    4       a        0        1.254893140021614D-04
 
    5       a       57        8.164155246086797D-06
 

 converged!

  Switching to fine grid
        preparing numerical integration ....
          Overall gridpoints after grid construction =        375906

 Calculating ground state density on molecular grid

 Integral of ground state density: N =   162.0000032458254    



 Iteration IRREP Converged      Max. Euclidean
                 roots          residual norm

    6       a       57        9.207551062221999D-06
 

 converged!

      ...terminated. cpu:    1126.54       wall:    1126.62
 
 
 
 
 CONSTRUCTING <a|x,y,z|i>*U(a,i)xi          -> Dip. deriv.
      ...terminated. cpu:       0.04       wall:       0.04
 
 
 
 
 CONSTRUCTING RHS(a,i)xi*U(a,i)chi          -> Hessian
      ...terminated. cpu:       0.02       wall:       0.02
 
 
 
 

            -----------------------
            permanent dipole moment
            -----------------------

                                   x                y                z
    electronic part       :  832.6701963121  -482.7285448743    -0.0467052091
     nuclear   part       : -827.2956665016   477.8882199446     0.0518950791
     total                :    5.3745298106    -4.8403249297     0.0051898700

 with reference to the point :   0.0000000        0.0000000        0.0000000
 (given in atomic units)
    | dipole |       :   18.3842492440  debye

   ***  dipole moment & cartesian dipole gradients written onto
        $dipole, $dipgrad,  file=<dipgrad>  ***

             -----------------------------------
             rotational and vibrational analysis
             -----------------------------------


            ==============================================================
            ATOMIC WEIGHTS (average over the natural occurance of isotops)
            ==============================================================
            ('*' denotes special isotop !)
              1     o                15.99940
              2     c                12.01115
              3     c                12.01115
              4     c                12.01115
              5     c                12.01115
              6     c                12.01115
              7     c                12.01115
              8     s                32.06400
              9     c                12.01115
             10     n                14.00670
             11     c                12.01115
             12     s                32.06400
             13     n                14.00670
             14     c                12.01115
             15     c                12.01115
             16     h                 1.00797
             17     h                 1.00797
             18     o                15.99940
             19     h                 1.00797
             20     br               79.90900
             21     h                 1.00797

          -------------------------------------------------
          CARTESIAN FORCE CONSTANT MATRIX (hartree/bohr**2)
         (translational & rotational space projected out)
          -------------------------------------------------

   ATOM              1 o                           2 c 
                  dx        dy        dz        dx        dy        dz
   1 o     dx  0.6063516
           dy -0.2905183 0.2584219
           dz  0.0005286-0.0005036 0.0334443
   2 c     dx -0.5169416 0.2369850-0.0004502 0.8522058
           dy  0.2370404-0.2282061 0.0003282-0.1505011 0.5934807
           dz -0.0004521 0.0003302-0.0728801 0.0000635-0.0011177 0.1973687
   3 c     dx -0.0864349-0.0003183 0.0000702-0.1892801-0.0548251 0.0002351
           dy  0.0206750 0.0253141-0.0000287-0.0869353-0.1642954 0.0003454
           dz  0.0000062-0.0000173 0.0198546 0.0003338 0.0003286-0.0671588
   4 c     dx  0.0094411-0.0019991 0.0000022-0.0552789-0.0105232 0.0000680
           dy -0.0173485-0.0001155 0.0000254 0.0190844 0.0343541-0.0001216
           dz  0.0000480 0.0000156 0.0046581-0.0000217-0.0001040-0.0020210
   5 c     dx -0.0079318 0.0080775-0.0000181-0.0012829-0.0230738 0.0000664
           dy  0.0069912 0.0001048-0.0000036-0.0155661-0.0162058 0.0000406
           dz -0.0000152-0.0000047 0.0004079 0.0000425 0.0000482-0.0058459
   6 c     dx  0.0050333-0.0144035 0.0000416 0.0179145 0.0496213-0.0001626
           dy -0.0013052-0.0069343 0.0000306 0.0295934-0.0079137 0.0000097
           dz  0.0000025 0.0000393 0.0027444-0.0001013-0.0000045 0.0016251
   7 c     dx -0.0166832 0.0567650-0.0001485-0.0914588-0.0271714 0.0000958
           dy  0.0439757-0.0532409 0.0001891-0.0072328-0.1819877 0.0003395
           dz -0.0001087 0.0001814 0.0194195 0.0000322 0.0003534-0.0741004
   8 s     dx -0.0031746-0.0023710 0.0000090 0.0094325 0.0136299-0.0000449
           dy -0.0024548 0.0004152-0.0000001 0.0077779 0.0040427-0.0000065
           dz  0.0000090 0.0000002-0.0001712-0.0000267-0.0000091 0.0037652
   9 c     dx -0.0111764 0.0085655-0.0000178 0.0043247-0.0131502 0.0000369
           dy  0.0022198-0.0017219 0.0000025-0.0024867 0.0000457 0.0000059
           dz  0.0000001-0.0000012-0.0003402 0.0000059 0.0000127 0.0013967
  10 n     dx  0.0078663-0.0065472 0.0000141-0.0024881 0.0131750-0.0000386
           dy  0.0009171 0.0016230-0.0000042-0.0025072-0.0040476 0.0000081
           dz -0.0000078 0.0000005 0.0004268 0.0000083-0.0000023-0.0019484
  11 c     dx  0.0107703-0.0071134 0.0000133-0.0069870 0.0087034-0.0000198
           dy -0.0008557 0.0012963-0.0000053 0.0000589-0.0031796 0.0000146
           dz -0.0000043-0.0000016-0.0006765 0.0000051 0.0000093 0.0017148
  12 s     dx -0.0009418 0.0003840-0.0000005 0.0007690-0.0001165-0.0000003
           dy  0.0016516-0.0008576 0.0000021-0.0012823 0.0007024-0.0000017
           dz -0.0000033 0.0000020 0.0000886 0.0000021-0.0000035-0.0002661
  13 n     dx -0.0065707 0.0044240-0.0000090 0.0039623-0.0055722 0.0000134
           dy -0.0002166 0.0003055-0.0000005 0.0000703-0.0003450 0.0000003
           dz  0.0000051-0.0000036 0.0000626-0.0000029 0.0000044-0.0001915
  14 c     dx  0.0056794-0.0035148 0.0000069-0.0036533 0.0038958-0.0000088
           dy -0.0014160 0.0009799-0.0000020 0.0007831-0.0014535 0.0000040
           dz  0.0000004-0.0000006-0.0000269 0.0000002 0.0000019 0.0000529
  15 c     dx -0.0000929 0.0000247 0.0000001 0.0000331-0.0000317-0.0000001
           dy  0.0007842-0.0003860 0.0000010-0.0005715 0.0003556-0.0000014
           dz -0.0000018 0.0000012 0.0001160 0.0000011-0.0000020-0.0002770
  16 h     dx -0.0002644 0.0001387 0.0000263 0.0001919-0.0001051-0.0000604
           dy -0.0000267 0.0000203-0.0000085 0.0000245-0.0000350 0.0000241
           dz -0.0000296 0.0000168-0.0000060 0.0000205-0.0000135 0.0000134
  17 h     dx -0.0002643 0.0001385-0.0000268 0.0001919-0.0001047 0.0000608
           dy -0.0000265 0.0000202 0.0000084 0.0000243-0.0000350-0.0000238
           dz  0.0000302-0.0000172-0.0000058-0.0000210 0.0000139 0.0000135
  18 o     dx -0.0032873 0.0020224-0.0000040 0.0021131-0.0021593 0.0000048
           dy -0.0008161 0.0005131-0.0000014 0.0005330-0.0004549 0.0000009
           dz  0.0000051-0.0000031-0.0000114-0.0000032 0.0000034 0.0000478
  19 h     dx  0.0025736 0.0031087-0.0000131 0.0044596-0.0288915 0.0000873
           dy  0.0004237 0.0029397-0.0000204 0.0055266-0.0133470 0.0000526
           dz -0.0000057-0.0000220-0.0038416-0.0000146 0.0000750 0.0054868
  20 br    dx  0.0065443 0.0038217-0.0000169-0.0240264-0.0076757 0.0000410
           dy -0.0003037 0.0006684-0.0000076-0.0351432-0.0143052 0.0000784
           dz -0.0000041-0.0000096-0.0017869 0.0001227 0.0000587 0.0044388
  21 h     dx -0.0004963 0.0023299-0.0000077-0.0042013-0.0021643 0.0000146
           dy  0.0006094-0.0011599-0.0000013 0.0017650 0.0028304 0.0000183
           dz -0.0000026-0.0000026-0.0014764 0.0000035 0.0000188 0.0087657

   ATOM              3 c                           4 c 
                  dx        dy        dz        dx        dy        dz
   3 c     dx  0.6821604
           dy -0.0858280 0.7285956
           dz -0.0001087-0.0018139 0.1038272
   4 c     dx -0.3196046 0.1573982-0.0002997 0.6591631
           dy  0.1329536-0.2089128 0.0003897-0.1375835 0.5905219
           dz -0.0002269 0.0003750-0.0500339 0.0000717-0.0013067 0.1238176
   5 c     dx  0.0101169 0.0266059-0.0000825-0.0977448-0.0136512 0.0000594
           dy  0.0410975-0.0245910 0.0000671-0.0191436-0.2422128 0.0005266
           dz -0.0001231 0.0000761 0.0064718 0.0000729 0.0005236-0.0692857
   6 c     dx -0.0255474 0.0059589 0.0000017 0.0136904-0.0303570 0.0000854
           dy -0.0061841-0.0010029 0.0000105-0.0210577-0.0262709 0.0001069
           dz  0.0000338 0.0000010 0.0008803 0.0000600 0.0001153 0.0050793
   7 c     dx  0.0136365-0.0250495 0.0000702-0.0092824 0.0129262-0.0000318
           dy -0.0318721-0.0147068 0.0000857 0.0095287-0.0150081 0.0000425
           dz  0.0000932 0.0000849 0.0076736-0.0000227 0.0000358 0.0001743
   8 s     dx -0.0367871-0.0086493 0.0000529-0.1512207-0.0604137 0.0002557
           dy -0.0025603 0.0157933-0.0000350-0.0204012-0.0790455 0.0001567
           dz  0.0000343-0.0000310 0.0035456 0.0001363 0.0001820-0.0303087
   9 c     dx -0.0102597-0.0036096 0.0000182-0.0336661-0.0093497 0.0000487
           dy  0.0020205-0.0056764 0.0000191 0.0262149 0.0035811-0.0000327
           dz  0.0000004 0.0000227 0.0010717-0.0000586-0.0000102-0.0019229
  10 n     dx  0.0062223 0.0002136-0.0000036-0.0135328 0.0665274-0.0001817
           dy -0.0019953-0.0051073 0.0000225 0.0237786-0.0357940 0.0001378
           dz  0.0000028 0.0000211 0.0019573-0.0000530 0.0001103 0.0150948
  11 c     dx  0.0098302-0.0012639-0.0000015-0.0011487 0.0193996-0.0000575
           dy  0.0012272 0.0014435 0.0000000 0.0010083-0.0100346 0.0000278
           dz -0.0000084 0.0000015 0.0017266-0.0000027 0.0000169-0.0005467
  12 s     dx -0.0013232-0.0005525 0.0000025 0.0005052-0.0005748 0.0000013
           dy  0.0018360 0.0000835-0.0000013-0.0021942 0.0028565-0.0000066
           dz -0.0000041-0.0000005-0.0000591 0.0000057-0.0000068 0.0000763
  13 n     dx -0.0048544 0.0002386 0.0000023 0.0008461-0.0113762 0.0000332
           dy -0.0005796 0.0007027-0.0000015-0.0003967-0.0011134 0.0000035
           dz  0.0000050-0.0000020 0.0000783 0.0000007 0.0000105-0.0000329
  14 c     dx  0.0046138 0.0003349-0.0000036-0.0010806 0.0078368-0.0000223
           dy -0.0009653 0.0001935 0.0000003 0.0001405-0.0035736 0.0000111
           dz -0.0000003-0.0000006 0.0000791 0.0000004 0.0000057 0.0001359
  15 c     dx -0.0000854-0.0001348 0.0000002-0.0003657 0.0000297 0.0000005
           dy  0.0007075 0.0002010-0.0000024-0.0001267 0.0009321-0.0000011
           dz -0.0000021-0.0000019-0.0004292 0.0000007-0.0000009 0.0005158
  16 h     dx -0.0002445-0.0000389-0.0000840-0.0000077-0.0000828 0.0002161
           dy -0.0000035 0.0000214-0.0000010-0.0000344-0.0000384 0.0000878
           dz -0.0000214 0.0000047 0.0000217 0.0000374-0.0000548-0.0000036
  17 h     dx -0.0002444-0.0000384 0.0000846-0.0000081-0.0000840-0.0002156
           dy -0.0000034 0.0000214 0.0000010-0.0000348-0.0000386-0.0000875
           dz  0.0000218-0.0000047 0.0000216-0.0000372 0.0000552-0.0000030
  18 o     dx -0.0026484-0.0001864 0.0000021 0.0006115-0.0040177 0.0000114
           dy -0.0006891-0.0000550 0.0000003 0.0000651-0.0004860 0.0000013
           dz  0.0000040 0.0000004 0.0000482-0.0000006 0.0000046 0.0000772
  19 h     dx -0.0535715 0.0031151 0.0000047 0.0039869 0.0271122-0.0000829
           dy  0.0019963-0.3435935 0.0009338-0.0024111-0.0100232 0.0000351
           dz  0.0000071 0.0009331-0.0306062 0.0000066 0.0000145 0.0010607
  20 br    dx  0.0042946-0.0026193 0.0000061-0.0010683 0.0000625 0.0000004
           dy  0.0039435-0.0051559 0.0000184 0.0002402 0.0000953-0.0000004
           dz -0.0000121 0.0000225 0.0018249-0.0000008 0.0000014 0.0000175
  21 h     dx  0.0000109 0.0003656-0.0000019-0.0042348-0.0010933 0.0000085
           dy  0.0000420 0.0007269-0.0000047-0.0024683 0.0003264 0.0000114
           dz -0.0000007-0.0000050-0.0007955 0.0000127 0.0000101 0.0034508

   ATOM              5 c                           6 c 
                  dx        dy        dz        dx        dy        dz
   5 c     dx  0.8071596
           dy  0.0160942 0.6193876
           dz -0.0004858-0.0014341 0.1473311
   6 c     dx -0.2277188-0.0866742 0.0003812 0.7179636
           dy -0.1147956-0.1750176 0.0004353-0.0556283 0.7599702
           dz  0.0004675 0.0004164-0.0579004-0.0002231-0.0019098 0.1280633
   7 c     dx -0.0595937-0.0059343 0.0000598-0.3437110 0.1754742-0.0003402
           dy  0.0268301 0.0265540-0.0000796 0.1373361-0.2155906 0.0004095
           dz -0.0000370-0.0000568 0.0065722-0.0002271 0.0003827-0.0524083
   8 s     dx -0.0118906-0.0359099 0.0001166-0.0049866-0.0027977 0.0000135
           dy -0.0075590-0.0173200 0.0000629-0.0033773-0.0052047 0.0000262
           dz  0.0000303 0.0000811 0.0017857 0.0000151 0.0000256 0.0027219
   9 c     dx -0.1371232 0.0013046 0.0000900 0.0248323 0.0100339-0.0000419
           dy -0.0228469-0.0044863 0.0000597 0.0079074 0.0002519 0.0000164
           dz  0.0001641 0.0000453 0.0108036-0.0000354 0.0000147 0.0072780
  10 n     dx -0.2942646 0.1319148-0.0002454-0.0764087 0.0093344 0.0000162
           dy  0.1070788-0.1598673 0.0002227-0.0120374 0.0168599-0.0000597
           dz -0.0001735 0.0002074-0.0632181 0.0000829-0.0000741-0.0054886
  11 c     dx  0.0348810-0.0179010 0.0000372-0.0158854-0.0027843 0.0000199
           dy -0.0111971-0.0001006 0.0000317 0.0021434 0.0019817-0.0000019
           dz  0.0000175 0.0000355 0.0080652 0.0000045 0.0000016 0.0018478
  12 s     dx -0.0044559 0.0002466 0.0000014 0.0014189-0.0000227-0.0000008
           dy  0.0052539-0.0015790-0.0000011-0.0022258-0.0001995 0.0000022
           dz -0.0000141 0.0000014-0.0008738 0.0000063 0.0000011 0.0001037
  13 n     dx -0.0185545 0.0069310-0.0000098 0.0077964 0.0020852-0.0000116
           dy  0.0000182 0.0013767-0.0000069 0.0003975 0.0000924-0.0000017
           dz  0.0000116-0.0000112-0.0008639-0.0000066-0.0000028-0.0003673
  14 c     dx  0.0131399-0.0060343 0.0000093-0.0062217-0.0012212 0.0000071
           dy -0.0060692 0.0020260-0.0000051 0.0025007 0.0006142-0.0000058
           dz  0.0000085-0.0000047-0.0009385-0.0000037-0.0000033-0.0007547
  15 c     dx -0.0007397 0.0003104 0.0000001 0.0002848 0.0000553-0.0000003
           dy  0.0024567-0.0008299 0.0000033-0.0010001-0.0001265 0.0000013
           dz -0.0000065 0.0000044 0.0007882 0.0000029 0.0000006 0.0000794
  16 h     dx -0.0002472 0.0002417 0.0001780 0.0001920 0.0000300-0.0000340
           dy -0.0000167 0.0000766 0.0000877 0.0000453 0.0000028-0.0000897
           dz -0.0000124 0.0000054-0.0000208 0.0000129 0.0000047-0.0000001
  17 h     dx -0.0002474 0.0002406-0.0001791 0.0001920 0.0000302 0.0000336
           dy -0.0000167 0.0000761-0.0000883 0.0000453 0.0000033 0.0000896
           dz  0.0000129-0.0000064-0.0000200-0.0000135-0.0000048-0.0000007
  18 o     dx -0.0063955 0.0029218-0.0000046 0.0031592 0.0007334-0.0000040
           dy -0.0003445 0.0006063-0.0000009 0.0004130 0.0001142-0.0000000
           dz  0.0000059-0.0000030 0.0002665-0.0000036-0.0000005 0.0001258
  19 h     dx -0.0040505-0.0000875 0.0000077-0.0007396 0.0001278 0.0000002
           dy  0.0024470 0.0018238 0.0000137-0.0007099 0.0007579-0.0000025
           dz  0.0000001 0.0000166 0.0070593 0.0000023-0.0000029-0.0002223
  20 br    dx  0.0017164 0.0062011-0.0000172-0.0377289-0.0205059 0.0000875
           dy  0.0016651 0.0014468 0.0000096 0.0002706 0.0038481-0.0000017
           dz -0.0000036 0.0000060 0.0050480 0.0000261 0.0000117 0.0034141
  21 h     dx  0.0052274-0.0272446 0.0000833-0.0535292-0.0011951 0.0000155
           dy  0.0030434-0.0112683 0.0000460-0.0002260-0.3462360 0.0009602
           dz -0.0000108 0.0000660 0.0043677 0.0000125 0.0009626-0.0368209

   ATOM              7 c                           8 s 
                  dx        dy        dz        dx        dy        dz
   7 c     dx  0.6139054
           dy -0.1374104 0.5209869
           dz  0.0000807-0.0011994 0.0995217
   8 s     dx  0.0031134-0.0062758 0.0000163 0.2649734
           dy  0.0039041-0.0015551 0.0000006 0.0323614 0.2872102
           dz -0.0000133 0.0000064-0.0004814-0.0002433-0.0007823 0.0325089
   9 c     dx -0.0062531 0.0194575-0.0000535-0.0469086 0.0112725-0.0000243
           dy -0.0026889-0.0000639 0.0000023 0.0401756-0.1238658 0.0002535
           dz  0.0000125-0.0000120 0.0001019-0.0001102 0.0002720-0.0297894
  10 n     dx  0.0101625-0.0253801 0.0000722-0.0151990-0.0256528 0.0000989
           dy -0.0033573 0.0003105 0.0000140 0.0017147-0.0701469 0.0002629
           dz  0.0000058 0.0000288 0.0041344 0.0000154 0.0002800 0.0173772
  11 c     dx  0.0013192-0.0147628 0.0000425-0.0082834 0.0133316-0.0000333
           dy -0.0009256 0.0023268-0.0000081 0.0302149-0.0124337 0.0000219
           dz  0.0000017 0.0000000-0.0006471-0.0000849 0.0000324 0.0009938
  12 s     dx -0.0002736 0.0009743-0.0000027-0.0013799-0.0022175 0.0000084
           dy  0.0001149-0.0019247 0.0000059-0.0016836 0.0014358 0.0000012
           dz -0.0000007 0.0000064 0.0000536 0.0000069 0.0000010 0.0011851
  13 n     dx  0.0001232 0.0085397-0.0000253 0.0040546-0.0046638 0.0000096
           dy  0.0002178 0.0006059-0.0000017 0.0002663 0.0002587-0.0000050
           dz -0.0000006-0.0000074 0.0000443-0.0000043-0.0000018-0.0013133
  14 c     dx -0.0003918-0.0068471 0.0000204-0.0027658 0.0038636-0.0000089
           dy -0.0003317 0.0022186-0.0000063 0.0009816-0.0008764-0.0000005
           dz  0.0000014-0.0000016 0.0000309-0.0000016-0.0000028-0.0009049
  15 c     dx -0.0001209 0.0001314-0.0000002 0.0000118-0.0011831 0.0000042
           dy  0.0001120-0.0008489 0.0000027-0.0004137 0.0010921 0.0000003
           dz -0.0000004 0.0000029 0.0000557 0.0000019 0.0000010 0.0010891
  16 h     dx  0.0000458 0.0002546 0.0000155-0.0002550-0.0001056 0.0002092
           dy -0.0000215 0.0000360 0.0000001-0.0000790 0.0000532-0.0000130
           dz  0.0000220 0.0000319-0.0000028 0.0000603-0.0000173-0.0000421
  17 h     dx  0.0000458 0.0002545-0.0000170-0.0002553-0.0001069-0.0002083
           dy -0.0000216 0.0000358-0.0000003-0.0000794 0.0000533 0.0000126
           dz -0.0000220-0.0000325-0.0000026-0.0000596 0.0000170-0.0000416
  18 o     dx  0.0004509 0.0038310-0.0000115 0.0007498-0.0016198 0.0000031
           dy  0.0003200 0.0008273-0.0000025-0.0002573-0.0001592-0.0000004
           dz -0.0000011-0.0000054-0.0000118 0.0000000 0.0000016 0.0000101
  19 h     dx -0.0037897-0.0006253 0.0000065 0.0012455-0.0002229-0.0000014
           dy -0.0023560-0.0006245 0.0000137-0.0002530 0.0002229-0.0000073
           dz  0.0000114 0.0000127 0.0034247-0.0000016-0.0000075-0.0023161
  20 br    dx -0.1146499-0.0481406 0.0002089-0.0000256 0.0001255-0.0000010
           dy -0.0410672-0.0568762 0.0001448-0.0001723 0.0002044-0.0000016
           dz  0.0001858 0.0001501-0.0187267 0.0000012-0.0000005-0.0002097
  21 h     dx  0.0034051 0.0274332-0.0000828-0.0004489-0.0005114 0.0000023
           dy -0.0034988-0.0114744 0.0000529 0.0000115-0.0001745 0.0000025
           dz  0.0000114 0.0000324 0.0051745 0.0000006 0.0000027 0.0005957

   ATOM              9 c                          10 n 
                  dx        dy        dz        dx        dy        dz
   9 c     dx  0.7872042
           dy  0.0618605 0.4984187
           dz -0.0006136-0.0011951 0.1117814
  10 n     dx -0.2162490-0.1871332 0.0006598 0.6659959
           dy -0.1514607-0.2452772 0.0006481 0.0395323 0.4896574
           dz  0.0005539 0.0006712-0.0612649-0.0004808-0.0011986 0.0992272
  11 c     dx -0.2800283 0.0833145-0.0001080-0.0958040-0.0161584 0.0001012
           dy  0.0704685-0.1054085 0.0001018-0.0217175 0.0073449-0.0000435
           dz -0.0000689 0.0000947-0.0554606 0.0001173-0.0000477-0.0119101
  12 s     dx -0.0113577 0.0287211-0.0000757 0.0067718 0.0033514-0.0000146
           dy  0.0181938-0.0143488 0.0000491-0.0081128-0.0012607 0.0000068
           dz -0.0000452 0.0000423 0.0056076 0.0000204 0.0000003-0.0005364
  13 n     dx -0.0723173-0.0377307 0.0001597 0.0242477 0.0088567-0.0000377
           dy -0.0126293 0.0090022-0.0000078 0.0065234 0.0025216 0.0000074
           dz  0.0000864 0.0000079 0.0034030-0.0000316 0.0000058 0.0063232
  14 c     dx  0.0261628 0.0032305-0.0000192-0.0208018-0.0033331 0.0000252
           dy -0.0100238-0.0058757 0.0000481 0.0073330 0.0006237 0.0000043
           dz  0.0000166 0.0000390 0.0081097-0.0000055 0.0000114 0.0035712
  15 c     dx -0.0003055 0.0015978-0.0000030 0.0012513-0.0003397-0.0000006
           dy  0.0039267-0.0033100 0.0000143-0.0038230-0.0002087-0.0000007
           dz -0.0000105 0.0000153 0.0022125 0.0000099-0.0000029-0.0012431
  16 h     dx -0.0006184 0.0006914 0.0006646 0.0004875 0.0003537-0.0003392
           dy -0.0002004 0.0001432 0.0006322 0.0001031 0.0001620-0.0000348
           dz -0.0001128-0.0002659-0.0003708 0.0000434 0.0000239-0.0000015
  17 h     dx -0.0006191 0.0006878-0.0006685 0.0004879 0.0003557 0.0003364
           dy -0.0002006 0.0001411-0.0006350 0.0001029 0.0001621 0.0000337
           dz  0.0001145 0.0002619-0.0003678-0.0000447-0.0000254-0.0000020
  18 o     dx -0.0121186-0.0055868 0.0000231 0.0089306 0.0024296-0.0000137
           dy -0.0021986-0.0002053-0.0000008 0.0011120 0.0011221-0.0000077
           dz  0.0000148 0.0000023-0.0008405-0.0000107-0.0000089-0.0012319
  19 h     dx -0.0001403 0.0008546-0.0000027-0.0004868 0.0017879-0.0000048
           dy  0.0003153-0.0006360 0.0000009 0.0000078-0.0003041 0.0000022
           dz -0.0000011 0.0000005-0.0002864 0.0000006 0.0000010 0.0004374
  20 br    dx -0.0032043-0.0003446 0.0000026-0.0001090-0.0005975 0.0000029
           dy -0.0018185-0.0005435 0.0000007 0.0010883 0.0003403 0.0000024
           dz  0.0000074-0.0000004-0.0006861-0.0000021 0.0000033 0.0013752
  21 h     dx -0.0001785-0.0006785 0.0000019 0.0029200 0.0016301-0.0000092
           dy -0.0007571-0.0001646-0.0000004 0.0013986 0.0012862-0.0000144
           dz  0.0000022-0.0000005-0.0004366-0.0000081-0.0000145-0.0030794

   ATOM             11 c                          12 s 
                  dx        dy        dz        dx        dy        dz
  11 c     dx  0.8104204
           dy  0.0965762 0.4857507
           dz -0.0007013-0.0010642 0.1459649
  12 s     dx -0.0488338 0.0218301-0.0000548 0.2482311
           dy  0.0018964-0.1139075 0.0002393 0.0274666 0.2573741
           dz  0.0000042 0.0002255-0.0323444-0.0002152-0.0006758 0.0364540
  13 n     dx -0.2933033-0.1880954 0.0007018 0.0056786-0.0269099 0.0000923
           dy -0.1747303-0.2611313 0.0007100-0.0012044-0.0612817 0.0002438
           dz  0.0006635 0.0007153-0.0585040 0.0000126 0.0002617 0.0198775
  14 c     dx -0.1099349-0.0458663 0.0002047-0.0270289-0.0065590 0.0000317
           dy -0.0129995 0.0140436-0.0000513-0.0242462-0.0177121 0.0000513
           dz  0.0001084-0.0000234-0.0051282 0.0000869 0.0000377-0.0060501
  15 c     dx -0.0234568 0.0275836-0.0000682-0.1383414-0.0162808 0.0001101
           dy  0.0155900-0.0000499-0.0000118-0.0348788-0.0523482 0.0000650
           dz -0.0000309-0.0000184-0.0004831 0.0001658 0.0000525-0.0377250
  16 h     dx -0.0035633-0.0030439-0.0017887-0.0162654 0.0072540-0.0145912
           dy -0.0015834-0.0042675-0.0004381-0.0086165 0.0043960-0.0069564
           dz  0.0015709-0.0003755 0.0003336 0.0018693-0.0020145 0.0058788
  17 h     dx -0.0035634-0.0030329 0.0018121-0.0162481 0.0073451 0.0145763
           dy -0.0015922-0.0042626 0.0004678-0.0086177 0.0044502 0.0069755
           dz -0.0015566 0.0004072 0.0003281-0.0017887 0.0020134 0.0058078
  18 o     dx  0.0200245 0.0245713-0.0000826 0.0032018-0.0062679 0.0000193
           dy  0.0100701 0.0009156 0.0000078-0.0017949-0.0062331 0.0000283
           dz -0.0000418-0.0000050 0.0053259 0.0000051 0.0000315 0.0026200
  19 h     dx  0.0004430-0.0001348-0.0000002 0.0000694 0.0000178-0.0000001
           dy -0.0003310 0.0002051-0.0000021-0.0000085-0.0000089 0.0000002
           dz  0.0000004-0.0000022-0.0005551 0.0000001 0.0000004 0.0001209
  20 br    dx  0.0031128-0.0007550 0.0000002-0.0000871 0.0004268-0.0000010
           dy  0.0018512-0.0003769-0.0000009-0.0000704 0.0002657-0.0000006
           dz -0.0000093 0.0000004-0.0002714-0.0000004-0.0000024-0.0000175
  21 h     dx -0.0000094-0.0000581 0.0000004-0.0001089 0.0000594-0.0000002
           dy  0.0004871-0.0001555 0.0000009-0.0000528 0.0000976-0.0000004
           dz -0.0000014 0.0000012 0.0002265 0.0000002-0.0000004-0.0000016

   ATOM             13 n                          14 c 
                  dx        dy        dz        dx        dy        dz
  13 n     dx  0.6758241
           dy  0.1169931 0.4698521
           dz -0.0007327-0.0012725 0.0667244
  14 c     dx -0.1949663 0.0704810-0.0001344 0.9511468
           dy  0.1078821-0.1556932 0.0001839 0.2186498 0.5782288
           dz -0.0002488 0.0002096-0.0704115-0.0011162-0.0011867 0.2285401
  15 c     dx -0.0199124 0.0151246-0.0000203-0.0599986 0.0063314-0.0000351
           dy  0.0175444-0.0292137 0.0001332 0.0225132-0.1260029 0.0000994
           dz -0.0000268 0.0001334 0.0187425-0.0000878 0.0001122-0.0864333
  16 h     dx  0.0017816 0.0001595-0.0003246-0.0009972 0.0016245 0.0021116
           dy  0.0031859-0.0038193-0.0036591 0.0138821-0.0081166 0.0280768
           dz  0.0006024-0.0000303-0.0007962 0.0005980-0.0026588 0.0024362
  17 h     dx  0.0017812 0.0001613 0.0003202-0.0010006 0.0016153-0.0021171
           dy  0.0031868-0.0037975 0.0036726 0.0138420-0.0082700-0.0280298
           dz -0.0006250 0.0000483-0.0008180-0.0006768 0.0027208 0.0025926
  18 o     dx -0.1127893-0.0206648 0.0001512-0.5741802-0.2912124 0.0011939
           dy -0.0040645 0.0316376-0.0000361-0.2863814-0.2709829 0.0007716
           dz  0.0001047-0.0000286 0.0179255 0.0011823 0.0007796-0.0749806
  19 h     dx -0.0002849-0.0000688 0.0000005 0.0001981-0.0000345-0.0000000
           dy  0.0003432-0.0000166 0.0000002-0.0002597 0.0000330 0.0000000
           dz -0.0000009 0.0000004 0.0001138 0.0000007-0.0000001-0.0000152
  20 br    dx -0.0025802-0.0000117 0.0000016 0.0021000-0.0004856-0.0000001
           dy -0.0014215 0.0000210 0.0000011 0.0011813-0.0003044 0.0000003
           dz  0.0000071 0.0000003 0.0000800-0.0000074 0.0000008 0.0000834
  21 h     dx  0.0000374 0.0000894-0.0000003-0.0000192-0.0000578 0.0000002
           dy -0.0003764 0.0000355-0.0000001 0.0003061-0.0000998 0.0000001
           dz  0.0000011-0.0000004-0.0000765-0.0000010 0.0000004 0.0000120

   ATOM             15 c                          16 h 
                  dx        dy        dz        dx        dy        dz
  15 c     dx  0.4496114
           dy -0.0847756 0.3962560
           dz  0.0003200 0.0005153 0.5484454
  16 h     dx -0.0987925 0.0463846-0.1091528 0.1102036
           dy  0.0460816-0.0737571 0.0805527-0.0474263 0.0783987
           dz -0.1051033 0.0789213-0.2319736 0.1115641-0.0837820 0.2421062
  17 h     dx -0.0985184 0.0469368 0.1087011 0.0081104-0.0052625-0.0115763
           dy  0.0466077-0.0747200-0.0815580-0.0051805 0.0047766 0.0099771
           dz  0.1046539-0.0799272-0.2312826 0.0115740-0.0101091-0.0183601
  18 o     dx -0.0104108-0.0316453 0.0001167 0.0003368-0.0000522 0.0004699
           dy -0.0410932-0.0372125 0.0001931-0.0010990 0.0019462 0.0002349
           dz  0.0001415 0.0001881 0.0177981-0.0001782-0.0043619 0.0007899
  19 h     dx  0.0000003-0.0000013 0.0000000-0.0000106-0.0000024-0.0000017
           dy  0.0000085-0.0000268 0.0000001 0.0000112-0.0000001 0.0000006
           dz -0.0000000 0.0000002 0.0000337-0.0000039-0.0000208-0.0000026
  20 br    dx -0.0000038 0.0002199-0.0000006-0.0000933-0.0000009-0.0000161
           dy -0.0000225 0.0001447-0.0000006-0.0000513-0.0000010-0.0000085
           dz  0.0000004-0.0000006-0.0000197-0.0000010 0.0000048-0.0000005
  21 h     dx -0.0000481 0.0000601-0.0000002 0.0000099 0.0000039 0.0000021
           dy -0.0000255 0.0000597-0.0000002-0.0000103 0.0000020-0.0000004
           dz  0.0000001-0.0000003-0.0000097-0.0000016 0.0000081 0.0000010

   ATOM             17 h                          18 o 
                  dx        dy        dz        dx        dy        dz
  17 h     dx  0.1099173
           dy -0.0479880 0.0794119
           dz -0.1111088 0.0848218 0.2413781
  18 o     dx  0.0003366-0.0000485-0.0004692 0.6832720
           dy -0.0010982 0.0019709-0.0002404 0.3276721 0.2762854
           dz  0.0001856 0.0043548 0.0007653-0.0014119-0.0009504 0.0313195
  19 h     dx -0.0000106-0.0000023 0.0000017-0.0001273-0.0000515 0.0000003
           dy  0.0000112 0.0000001-0.0000007 0.0001490 0.0000510-0.0000004
           dz  0.0000038 0.0000208-0.0000027-0.0000005-0.0000003-0.0000430
  20 br    dx -0.0000933-0.0000008 0.0000163-0.0012808-0.0003552 0.0000017
           dy -0.0000512-0.0000011 0.0000085-0.0007058-0.0001766 0.0000008
           dz  0.0000013-0.0000048-0.0000010 0.0000057 0.0000025-0.0000054
  21 h     dx  0.0000099 0.0000039-0.0000021 0.0000514 0.0000582-0.0000001
           dy -0.0000103 0.0000020 0.0000004-0.0001640-0.0000242 0.0000002
           dz  0.0000016-0.0000082 0.0000011 0.0000005 0.0000001 0.0000048

   ATOM             19 h                          20 br
                  dx        dy        dz        dx        dy        dz
  19 h     dx  0.0510754
           dy -0.0045031 0.3632207
           dz -0.0000061-0.0010196 0.0209631
  20 br    dx -0.0008360-0.0003813 0.0000015 0.1676044
           dy -0.0015432-0.0005648 0.0000017 0.0714553 0.0703090
           dz  0.0000048 0.0000008-0.0003165-0.0003166-0.0002305 0.0094440
  21 h     dx -0.0000039-0.0000263-0.0000002 0.0004143 0.0006753-0.0000051
           dy  0.0000449-0.0001087-0.0000012-0.0004387 0.0009620-0.0000144
           dz -0.0000005-0.0000011-0.0004925-0.0000010-0.0000142-0.0036845

   ATOM             21 h 
                  dx        dy        dz
  21 h     dx  0.0511921
           dy  0.0003204 0.3645373
           dz -0.0000190-0.0010553 0.0242740
 

   *** projected hessian written onto $hessian (projected), file=<hessian> ***

 dipole moment in principle axis system (a.u.) :
     5.3341050604    -4.8848368372    -0.0059433372
 norm :   7.23286547954252     

 rotational constants b for rotations around axis of inertia
 and optical intensities for (1 <-- 0) transition

   b   :     0.0312682398     0.0038375163     0.0034202529   (cm**(-1))
   b   :         937.3982         115.0458         102.5366     (MHz)
  int. :    28.4526767954    23.8616309265     0.0000353233     (a.u.)

   x   :     0.9999652310    -0.0083143029     0.0006396152
   y   :     0.0083123415     0.9999609208     0.0030102966
   z   :    -0.0006646188    -0.0030048753     0.9999952645

   ***  normal modes written onto $vibrational normal modes, file=<vib_normal_modes>  ***

 keyword $vibrational reduced masses missing in file <control>


   ***  vibrational spectroscopic data written onto$vibrational spectrum   
        file=<vibspectrum>  ***

          ---------------------------------------------------
          NORMAL MODES and VIBRATIONAL FREQUENCIES (cm**(-1))
          ---------------------------------------------------

 imaginary wave numbers indicate a negative curvature of the energy surface.
 zero frequency modes have no physical meaning except being generators of
 translations and rotations. each vibrational normal mode - given in terms of
 cartesian displacement vectors of all atoms - has been normalized to unity.
 to obtain mass-weigthed normal coordinates in a.u. divide the tabulated
 modes by sqrt(reduced mass * 1822.88853).
 band intensities or cross sections refer to independent non-degenerate normal
 modes, that is, the intensities of degenerate modes have yet to be added.
 dDIP/dQ is the normal mode derivative of the dipole moment.


       mode               1        2        3        4        5        6

     frequency           0.00     0.00     0.00     0.00     0.00     0.00

     symmetry                                                             

        IR                -        -        -        -        -        - 
|dDIP/dQ|   (a.u.)     0.0000   0.0000   0.0000   0.0000   0.0000   0.0000
intensity (km/mol)       0.00     0.00     0.00     0.00     0.00     0.00
intensity (  %   )       0.00     0.00     0.00     0.00     0.00     0.00
 
       RAMAN              -        -        -        -        -        - 
 
  1   o           x  -0.01859  0.02099  0.15783  0.09920  0.14870  0.00335
                  y   0.19239  0.00073  0.03897 -0.08531  0.22991  0.00098
                  z  -0.18776 -0.30744 -0.14148  0.01073  0.19895  0.06929
  2   c           x  -0.04336  0.02289  0.15746  0.08615  0.12906  0.00357
                  y   0.14877  0.00425  0.03834 -0.10832  0.19523  0.00124
                  z  -0.15915 -0.22004 -0.13002  0.01168  0.17161  0.00526
  3   c           x  -0.01657  0.02090  0.15784  0.10027  0.15031  0.00337
                  y   0.09593  0.00825  0.03739 -0.13608  0.15359  0.00216
                  z  -0.19249 -0.20001 -0.17908  0.01970  0.21399  0.12805
  4   c           x  -0.04586  0.02316  0.15740  0.08483  0.12708  0.00363
                  y   0.04828  0.01211  0.03671 -0.16123  0.11569  0.00242
                  z  -0.15855 -0.10114 -0.16408  0.02047  0.18114  0.05020
  5   c           x  -0.10457  0.02760  0.15655  0.05388  0.08051  0.00410
                  y   0.04776  0.01244  0.03689 -0.16164  0.11488  0.00181
                  z  -0.08828 -0.01180 -0.09921  0.01340  0.10317 -0.15663
  6   c           x  -0.13277  0.02970  0.15615  0.03901  0.05813  0.00431
                  y   0.09853  0.00861  0.03782 -0.13497  0.15486  0.00089
                  z  -0.05330 -0.02732 -0.04934  0.00539  0.05918 -0.28331
  7   c           x  -0.10367  0.02746  0.15659  0.05435  0.08121  0.00406
                  y   0.14586  0.00477  0.03849 -0.11000  0.19250  0.00064
                  z  -0.08701 -0.12552 -0.06424  0.00463  0.09181 -0.20596
  8   s           x  -0.02286  0.02147  0.15772  0.09696  0.14533  0.00346
                  y  -0.01908  0.01726  0.03553 -0.19664  0.06254  0.00347
                  z  -0.18771 -0.05876 -0.21427  0.02935  0.22034  0.16741
  9   c           x  -0.09150  0.02668  0.15672  0.06078  0.09088  0.00403
                  y  -0.04098  0.01931  0.03540 -0.20832  0.04474  0.00301
                  z  -0.10605  0.07010 -0.14622  0.02302  0.13189 -0.06304
 10   n           x  -0.12789  0.02940  0.15620  0.04159  0.06201  0.00431
                  y  -0.00138  0.01639  0.03617 -0.18756  0.07582  0.00215
                  z  -0.06153  0.07976 -0.09137  0.01503  0.07845 -0.21264
 11   c           x  -0.10485  0.02773  0.15651  0.05374  0.08030  0.00415
                  y  -0.09715  0.02376  0.03453 -0.23792  0.00019  0.00353
                  z  -0.09141  0.15461 -0.15202  0.02649  0.12134 -0.08007
 12   s           x  -0.17535  0.03308  0.15548  0.01657  0.02437  0.00473
                  y  -0.11443  0.02545  0.03448 -0.24718 -0.01396  0.00299
                  z  -0.00741  0.28100 -0.08021  0.01951  0.02982 -0.31957
 13   n           x  -0.06935  0.02507  0.15702  0.07246  0.10846  0.00388
                  y  -0.13686  0.02669  0.03376 -0.25875 -0.03099  0.00438
                  z  -0.13486  0.14644 -0.20591  0.03438  0.17360  0.06640
 14   c           x  -0.09282  0.02688  0.15667  0.06009  0.08985  0.00409
                  y  -0.18758  0.03076  0.03301 -0.28550 -0.07129  0.00474
                  z  -0.10797  0.24002 -0.19850  0.03613  0.14890  0.01075
 15   c           x  -0.15589  0.03166  0.15575  0.02684  0.03982  0.00460
                  y  -0.18528  0.03089  0.03325 -0.28443 -0.06989  0.00405
                  z  -0.03241  0.33272 -0.12775  0.02828  0.06476 -0.21298
 16   h           x  -0.17041 -0.00885  0.16886  0.01543  0.02296 -0.01475
                  y  -0.16309  0.08745  0.07330 -0.30012 -0.13525 -0.12422
                  z  -0.01449  0.38044 -0.11852  0.02835  0.04704 -0.25586
 17   h           x  -0.17237  0.07454  0.14218  0.02190  0.03210  0.02420
                  y  -0.25012 -0.02220 -0.00739 -0.29126 -0.03850  0.13250
                  z  -0.01423  0.38072 -0.11826  0.02832  0.04674 -0.25665
 18   o           x  -0.06890  0.02511  0.15700  0.07270  0.10883  0.00391
                  y  -0.23083  0.03402  0.03222 -0.30821 -0.10534  0.00552
                  z  -0.13764  0.25339 -0.24086  0.04294  0.18623  0.11828
 19   h           x   0.02796  0.01753  0.15849  0.12375  0.18563  0.00301
                  y   0.09644  0.00800  0.03726 -0.13571  0.15430  0.00262
                  z  -0.24579 -0.26792 -0.22825  0.02505  0.27312  0.28488
 20   br          x  -0.14058  0.03021  0.15607  0.03488  0.05193  0.00434
                  y   0.21367 -0.00035  0.03972 -0.07438  0.24592 -0.00056
                  z  -0.04119 -0.14739  0.00153 -0.00597  0.03406 -0.37249
 21   h           x  -0.17729  0.03306  0.15551  0.01554  0.02282  0.00467
                  y   0.09854  0.00883  0.03797 -0.13507  0.15455  0.00041
                  z   0.00000  0.03998  0.00000  0.00000  0.00000 -0.44036

reduced mass(g/mol)    16.032   11.790   14.527   12.856   16.678   19.374


       mode               7        8        9       10       11       12

     frequency          39.12    56.06    59.47    97.02   123.65   139.55

     symmetry            a        a        a        a        a        a   

        IR               YES      YES      YES      YES      YES      YES
|dDIP/dQ|   (a.u.)     0.0008   0.0002   0.0009   0.0016   0.0018   0.0004
intensity (km/mol)       1.26     0.06     1.31     4.28     5.77     0.26
intensity (  %   )       0.06     0.00     0.07     0.22     0.30     0.01
 
       RAMAN             YES      YES      YES      YES      YES      YES
 
  1   o           x   0.00002  0.00032 -0.07889  0.00012 -0.00004  0.00019
                  y   0.00014  0.00138 -0.05176  0.00058 -0.00018  0.00093
                  z   0.05139  0.45027  0.00052  0.18906 -0.06087  0.31418
  2   c           x  -0.00003  0.00016 -0.04550  0.00009  0.00001 -0.00002
                  y  -0.00011  0.00064  0.00764  0.00042  0.00004 -0.00010
                  z  -0.03379  0.21330  0.00016  0.13671  0.01311 -0.02858
  3   c           x  -0.00007  0.00011 -0.07785 -0.00002  0.00003 -0.00020
                  y  -0.00032  0.00031  0.08595 -0.00010  0.00014 -0.00093
                  z  -0.10619  0.11765 -0.00013 -0.03454  0.04557 -0.30367
  4   c           x  -0.00012 -0.00002 -0.03384  0.00000  0.00003 -0.00015
                  y  -0.00052 -0.00022  0.15459  0.00000  0.00016 -0.00071
                  z  -0.17562 -0.04768 -0.00047  0.00166  0.05195 -0.23306
  5   c           x  -0.00015 -0.00010  0.02967  0.00017  0.00005 -0.00007
                  y  -0.00069 -0.00048  0.15830  0.00082  0.00023 -0.00036
                  z  -0.23189 -0.13658 -0.00057  0.27486  0.07418 -0.11544
  6   c           x  -0.00009 -0.00012  0.07651  0.00022  0.00006 -0.00009
                  y  -0.00049 -0.00047  0.08550  0.00109  0.00030 -0.00048
                  z  -0.16325 -0.14120 -0.00038  0.35877  0.09831 -0.15478
  7   c           x  -0.00002 -0.00001  0.03590  0.00012  0.00004 -0.00008
                  y  -0.00014 -0.00001  0.01251  0.00061  0.00018 -0.00040
                  z  -0.04629 -0.00196 -0.00004  0.19731  0.05852 -0.12859
  8   s           x  -0.00011 -0.00007 -0.04317 -0.00018 -0.00000 -0.00005
                  y  -0.00048 -0.00051  0.21633 -0.00090 -0.00002 -0.00023
                  z  -0.16470 -0.13608 -0.00072 -0.29771 -0.00684 -0.07703
  9   c           x  -0.00014 -0.00012  0.02043  0.00002 -0.00002  0.00016
                  y  -0.00065 -0.00062  0.23468  0.00009 -0.00007  0.00071
                  z  -0.22127 -0.17189 -0.00082  0.03533 -0.02208  0.23560
 10   n           x  -0.00017 -0.00014  0.04627  0.00018  0.00001  0.00010
                  y  -0.00080 -0.00063  0.20899  0.00087  0.00008  0.00040
                  z  -0.27038 -0.17828 -0.00076  0.29350  0.02833  0.13251
 11   c           x  -0.00007 -0.00006 -0.00159 -0.00000 -0.00004  0.00022
                  y  -0.00031 -0.00034  0.13734 -0.00002 -0.00016  0.00098
                  z  -0.10577 -0.09114 -0.00046 -0.00339 -0.05207  0.32424
 12   s           x  -0.00018  0.00025 -0.26765 -0.00003 -0.00009 -0.00007
                  y  -0.00075  0.00057  0.06531 -0.00021 -0.00045 -0.00032
                  z  -0.25112  0.20221  0.00012 -0.06763 -0.14918 -0.10918
 13   n           x   0.00009 -0.00016  0.12312 -0.00001 -0.00001  0.00034
                  y   0.00041 -0.00048 -0.00726 -0.00002 -0.00001  0.00153
                  z   0.13748 -0.16129 -0.00016 -0.00663 -0.00264  0.51108
 14   c           x   0.00020 -0.00002  0.03736  0.00002  0.00001  0.00004
                  y   0.00091  0.00008 -0.20813  0.00011  0.00007  0.00019
                  z   0.30774 -0.00391  0.00058  0.03320  0.02334  0.06450
 15   c           x   0.00004  0.00026 -0.19958 -0.00010  0.00018  0.00002
                  y   0.00023  0.00088 -0.19900 -0.00048  0.00087  0.00010
                  z   0.08337  0.26302  0.00089 -0.16363  0.29009  0.03188
 16   h           x  -0.13740 -0.08202 -0.25351  0.09481 -0.29788 -0.06614
                  y  -0.12519  0.15951 -0.27514 -0.12313  0.18136 -0.01172
                  z   0.11078  0.37885  0.00059 -0.27305  0.54587  0.06973
 17   h           x   0.13751  0.08273 -0.25342 -0.09514  0.29858  0.06623
                  y   0.12581 -0.15698 -0.27536  0.12151 -0.17808  0.01214
                  z   0.10985  0.37969  0.00187 -0.27366  0.54657  0.06957
 18   o           x   0.00041 -0.00010  0.12938  0.00013 -0.00007 -0.00020
                  y   0.00182  0.00000 -0.37546  0.00065 -0.00029 -0.00095
                  z   0.61257 -0.05689  0.00098  0.20974 -0.09573 -0.31421
 19   h           x  -0.00005  0.00022 -0.14736 -0.00013  0.00001 -0.00022
                  y  -0.00019  0.00063  0.08491 -0.00061  0.00005 -0.00099
                  z  -0.06228  0.22363 -0.00002 -0.20507  0.01633 -0.32473
 20   br          x   0.00011 -0.00009  0.11513 -0.00007 -0.00001 -0.00000
                  y   0.00048 -0.00011 -0.12860 -0.00032 -0.00004  0.00005
                  z   0.16151 -0.05488  0.00026 -0.10537 -0.01328  0.01206
 21   h           x  -0.00009 -0.00022  0.14823  0.00027  0.00007 -0.00007
                  y  -0.00051 -0.00082  0.08608  0.00136  0.00035 -0.00038
                  z  -0.16940 -0.25531 -0.00050  0.44507  0.11378 -0.12089

reduced mass(g/mol)    15.893    9.210   13.595   10.310    3.144   12.195


       mode              13       14       15       16       17       18

     frequency         162.11   205.88   211.85   260.28   267.87   286.52

     symmetry            a        a        a        a        a        a   

        IR               YES      YES      YES      YES      YES      YES
|dDIP/dQ|   (a.u.)     0.0014   0.0003   0.0008   0.0011   0.0003   0.0016
intensity (km/mol)       3.43     0.16     1.03     2.16     0.20     4.54
intensity (  %   )       0.18     0.01     0.05     0.11     0.01     0.23
 
       RAMAN             YES      YES      YES      YES      YES      YES
 
  1   o           x   0.04013  0.00012 -0.07311 -0.37049  0.00006  0.12926
                  y   0.36439  0.00073  0.25958 -0.40473  0.00010 -0.26374
                  z  -0.00111  0.22962 -0.00080  0.00145  0.01495  0.00072
  2   c           x  -0.01266 -0.00009 -0.14082 -0.17676  0.00005  0.16155
                  y   0.27092 -0.00026  0.14210 -0.07533  0.00013 -0.18546
                  z  -0.00081 -0.09418 -0.00031  0.00035  0.04230  0.00045
  3   c           x   0.05138 -0.00030 -0.06627 -0.24361 -0.00012  0.10766
                  y   0.19309 -0.00131  0.11174  0.10014 -0.00077  0.02866
                  z  -0.00064 -0.44126 -0.00017 -0.00021 -0.24787 -0.00018
  4   c           x   0.02126 -0.00010 -0.00689 -0.15049 -0.00004  0.21635
                  y   0.13398 -0.00043  0.17518  0.17182 -0.00033  0.22105
                  z  -0.00044 -0.15210 -0.00048 -0.00044 -0.10067 -0.00080
  5   c           x  -0.09653  0.00002 -0.04025 -0.06434 -0.00001  0.09533
                  y   0.13662  0.00017  0.17790  0.16650 -0.00013  0.20852
                  z  -0.00039  0.04690 -0.00054 -0.00046 -0.03346 -0.00067
  6   c           x  -0.09703 -0.00000 -0.11001  0.03425  0.00022  0.18203
                  y   0.22749  0.00013  0.21338  0.04831  0.00101  0.01447
                  z  -0.00064  0.02997 -0.00061 -0.00007  0.33626 -0.00017
  7   c           x  -0.05763 -0.00008 -0.19689  0.02801  0.00022  0.08322
                  y   0.25831 -0.00020  0.11356 -0.01958  0.00103 -0.17444
                  z  -0.00074 -0.07409 -0.00020  0.00014  0.33935  0.00047
  8   s           x   0.09271  0.00014  0.07739 -0.08747  0.00009  0.34724
                  y  -0.06076  0.00063  0.10290  0.10886  0.00036  0.16357
                  z   0.00013  0.20623 -0.00042 -0.00024  0.12643 -0.00071
  9   c           x  -0.11474  0.00008  0.07928 -0.02280 -0.00018  0.05214
                  y  -0.13155  0.00034  0.02749  0.01729 -0.00088  0.05731
                  z   0.00047  0.11430 -0.00016 -0.00013 -0.29225 -0.00020
 10   n           x  -0.18840  0.00009 -0.03567 -0.10023 -0.00019  0.02343
                  y  -0.02742  0.00047  0.13178  0.12500 -0.00102  0.13685
                  z   0.00017  0.15113 -0.00043 -0.00041 -0.33314 -0.00042
 11   c           x  -0.15267 -0.00006  0.14091 -0.02034 -0.00002 -0.06976
                  y  -0.18502 -0.00036 -0.04264 -0.16562 -0.00012 -0.11192
                  z   0.00068 -0.11712  0.00008  0.00050 -0.05027  0.00037
 12   s           x  -0.01287  0.00002  0.28043  0.21197  0.00000 -0.10582
                  y  -0.15206 -0.00013 -0.07458 -0.23293  0.00020 -0.11601
                  z   0.00047 -0.03919  0.00006  0.00058  0.05206  0.00042
 13   n           x  -0.24077 -0.00019  0.19743 -0.02286  0.00014 -0.14874
                  y  -0.09628 -0.00104 -0.08937 -0.17902  0.00064 -0.05546
                  z   0.00050 -0.34486  0.00025  0.00062  0.20506  0.00025
 14   c           x  -0.19974 -0.00001  0.22639  0.01953  0.00005 -0.16056
                  y   0.04107 -0.00024 -0.07429 -0.06458  0.00022  0.03331
                  z   0.00002 -0.07710  0.00010  0.00020  0.06954  0.00000
 15   c           x  -0.04917  0.00008  0.26459  0.17274 -0.00005 -0.09965
                  y   0.02884  0.00019 -0.06230 -0.06829 -0.00009  0.00426
                  z  -0.00007  0.06814 -0.00000  0.00009 -0.03490  0.00006
 16   h           x  -0.01610 -0.09959  0.26851  0.20509  0.07680 -0.08566
                  y   0.07621  0.10390 -0.05229 -0.01824 -0.08367  0.02177
                  z   0.00024  0.17080  0.00221  0.00256 -0.11639 -0.00096
 17   h           x  -0.01615  0.09988  0.26845  0.20503 -0.07700 -0.08565
                  y   0.07625 -0.10290 -0.05224 -0.01820  0.08298  0.02178
                  z  -0.00076  0.17129 -0.00233 -0.00279 -0.11679  0.00095
 18   o           x  -0.27441  0.00013  0.23362 -0.04882 -0.00005 -0.23934
                  y   0.17353  0.00041 -0.08172  0.05837 -0.00028  0.16976
                  z  -0.00037  0.13992  0.00005 -0.00017 -0.08935 -0.00035
 19   h           x   0.10481 -0.00042 -0.11737 -0.33445 -0.00024 -0.14101
                  y   0.19468 -0.00177  0.11256  0.10017 -0.00134  0.02436
                  z  -0.00067 -0.59584 -0.00009 -0.00020 -0.43996 -0.00003
 20   br          x   0.19735 -0.00002 -0.23099  0.11661 -0.00005 -0.14002
                  y  -0.15426 -0.00003 -0.17474  0.11052 -0.00012 -0.02997
                  z   0.00035 -0.00067  0.00068 -0.00042 -0.03528  0.00018
 21   h           x  -0.14454  0.00005 -0.07332  0.13576  0.00026  0.44974
                  y   0.22922  0.00041  0.21141  0.05082  0.00127  0.01485
                  z  -0.00062  0.11986 -0.00066 -0.00013  0.41910 -0.00037

reduced mass(g/mol)    16.668    8.304   17.905   14.979    8.164   15.003


       mode              19       20       21       22       23       24

     frequency         374.82   375.34   440.82   461.41   516.33   537.14

     symmetry            a        a        a        a        a        a   

        IR               YES      YES      YES      YES      YES      YES
|dDIP/dQ|   (a.u.)     0.0014   0.0000   0.0012   0.0050   0.0027   0.0001
intensity (km/mol)       3.43     0.00     2.71    44.69    13.21     0.04
intensity (  %   )       0.18     0.00     0.14     2.30     0.68     0.00
 
       RAMAN             YES      YES      YES      YES      YES      YES
 
  1   o           x  -0.38435 -0.00053 -0.00002  0.23141 -0.23631  0.00006
                  y  -0.28366  0.00003 -0.00012 -0.06208  0.14788  0.00014
                  z   0.00067  0.15482 -0.04301  0.00005 -0.00029  0.04409
  2   c           x  -0.17592 -0.00044  0.00006  0.18888 -0.27728 -0.00005
                  y   0.05734 -0.00065  0.00032 -0.08929  0.00042 -0.00031
                  z   0.00063 -0.24670  0.10580  0.00014  0.00016 -0.08976
  3   c           x  -0.08967 -0.00021 -0.00009  0.05706 -0.06859 -0.00008
                  y   0.13128 -0.00005 -0.00043  0.09258 -0.32139 -0.00032
                  z  -0.00009 -0.08434 -0.14337 -0.00032  0.00101 -0.10067
  4   c           x   0.04089  0.00029  0.00012  0.00444  0.06125  0.00020
                  y   0.15984  0.00133  0.00055  0.10932 -0.18512  0.00099
                  z  -0.00148  0.35776  0.18316 -0.00033  0.00055  0.32825
  5   c           x  -0.05294  0.00018  0.00009 -0.13946  0.15343 -0.00004
                  y   0.14166  0.00145  0.00043  0.09434 -0.17568  0.00000
                  z  -0.00151  0.40602  0.14383 -0.00019  0.00042 -0.00353
  6   c           x  -0.06122 -0.00006 -0.00016 -0.01805 -0.00869  0.00005
                  y   0.17912  0.00053 -0.00072 -0.07705  0.05132  0.00031
                  z  -0.00074  0.08078 -0.23492  0.00026 -0.00014  0.10827
  7   c           x  -0.07168 -0.00048  0.00011  0.01772 -0.07681 -0.00003
                  y   0.10811 -0.00149  0.00054 -0.10290  0.05573 -0.00007
                  z   0.00124 -0.54734  0.17754  0.00028 -0.00011 -0.01363
  8   s           x   0.37023  0.00059 -0.00001 -0.03728  0.15651 -0.00004
                  y  -0.34777 -0.00058 -0.00005  0.03761  0.15727 -0.00022
                  z   0.00083 -0.00829 -0.01808 -0.00009 -0.00058 -0.07757
  9   c           x  -0.02067 -0.00025 -0.00003 -0.15781  0.08270  0.00016
                  y  -0.24627 -0.00145 -0.00013 -0.05479  0.06368  0.00086
                  z   0.00173 -0.35449 -0.04454  0.00026 -0.00021  0.29354
 10   n           x  -0.15155 -0.00027  0.00001 -0.22655  0.23532 -0.00029
                  y  -0.12597 -0.00036  0.00006  0.02007 -0.07595 -0.00115
                  z   0.00061 -0.05199  0.01913  0.00007  0.00004 -0.38275
 11   c           x   0.04707 -0.00002 -0.00002 -0.15294  0.00306  0.00019
                  y   0.06352 -0.00035 -0.00008  0.02844  0.00187  0.00094
                  z   0.00021 -0.15192 -0.02710  0.00002  0.00002  0.31956
 12   s           x  -0.06626 -0.00009  0.00000  0.24253  0.07869 -0.00002
                  y   0.24877  0.00049  0.00001  0.07654 -0.08243 -0.00004
                  z  -0.00079  0.03098  0.00302 -0.00039  0.00019 -0.01594
 13   n           x   0.03423  0.00015  0.00001 -0.20259 -0.14183 -0.00003
                  y   0.14553  0.00069  0.00006  0.13841  0.14589 -0.00027
                  z  -0.00088  0.15292  0.01826 -0.00028 -0.00036 -0.08073
 14   c           x   0.03703  0.00011  0.00001 -0.23146 -0.20537 -0.00010
                  y   0.05617  0.00034  0.00004  0.00447  0.05000 -0.00065
                  z  -0.00042  0.08362  0.01294  0.00014 -0.00003 -0.21625
 15   c           x  -0.06834 -0.00012  0.00000 -0.01691 -0.09855 -0.00001
                  y   0.08960  0.00011  0.00000  0.16667  0.14681 -0.00013
                  z  -0.00020 -0.00991  0.00036 -0.00049 -0.00038 -0.03799
 16   h           x  -0.09385  0.05416  0.00485  0.09705  0.00734 -0.15583
                  y   0.05443 -0.09446 -0.01607  0.33688  0.29008  0.34341
                  z  -0.00126 -0.08307 -0.00950  0.00156 -0.00509  0.20256
 17   h           x  -0.09356 -0.05456 -0.00486  0.09702  0.00737  0.15608
                  y   0.05391  0.09413  0.01602  0.33688  0.29006 -0.34228
                  z   0.00150 -0.08356 -0.00959 -0.00375  0.00337  0.20442
 18   o           x   0.15968  0.00021 -0.00000  0.01943 -0.07317  0.00009
                  y  -0.15633 -0.00043 -0.00002 -0.47359 -0.23164  0.00031
                  z   0.00053 -0.06033 -0.00691  0.00141  0.00075  0.09345
 19   h           x  -0.11839 -0.00029 -0.00036 -0.09859  0.06106 -0.00022
                  y   0.13632 -0.00018 -0.00164  0.08556 -0.31364 -0.00071
                  z   0.00005 -0.13210 -0.54915 -0.00019  0.00091 -0.23132
 20   br          x   0.01019  0.00004  0.00000  0.00693  0.01841  0.00001
                  y   0.00774  0.00009  0.00000 -0.00079  0.01747 -0.00000
                  z  -0.00010  0.02491 -0.00037 -0.00000 -0.00006 -0.00173
 21   h           x  -0.02456  0.00008 -0.00049  0.15280 -0.22186  0.00013
                  y   0.18101  0.00108 -0.00223 -0.07437  0.04749  0.00056
                  z  -0.00129  0.25858 -0.72054  0.00015  0.00004  0.18874

reduced mass(g/mol)    18.773   10.895    2.988   11.506   10.509    7.471


       mode              25       26       27       28       29       30

     frequency         545.91   561.92   587.60   604.36   673.12   687.98

     symmetry            a        a        a        a        a        a   

        IR               YES      YES      YES      YES      YES      YES
|dDIP/dQ|   (a.u.)     0.0028   0.0068   0.0012   0.0047   0.0012   0.0013
intensity (km/mol)      13.61    81.83     2.76    39.14     2.46     3.21
intensity (  %   )       0.70     4.21     0.14     2.01     0.13     0.17
 
       RAMAN             YES      YES      YES      YES      YES      YES
 
  1   o           x   0.05383 -0.14580 -0.00001  0.05416  0.00003  0.07111
                  y   0.12063 -0.15656 -0.00002  0.21479  0.00005 -0.10857
                  z  -0.00040  0.00057 -0.00933 -0.00068  0.02242  0.00031
  2   c           x  -0.09971  0.07975  0.00001 -0.12778 -0.00002  0.03230
                  y  -0.16931  0.24019  0.00006 -0.13454 -0.00021 -0.14441
                  z   0.00057 -0.00078  0.02141  0.00048 -0.06132  0.00034
  3   c           x  -0.09438  0.15893  0.00001 -0.22017 -0.00001  0.06597
                  y  -0.22953  0.19856  0.00005 -0.07395 -0.00013 -0.26422
                  z   0.00076 -0.00071  0.01943  0.00036 -0.03484  0.00074
  4   c           x   0.00432  0.04439 -0.00005 -0.07931  0.00011  0.17676
                  y  -0.02241 -0.06585 -0.00021  0.13437  0.00046  0.02280
                  z   0.00003  0.00023 -0.07079 -0.00033  0.15444 -0.00010
  5   c           x  -0.11896  0.18351  0.00002  0.14185 -0.00010  0.14776
                  y  -0.02030 -0.06435  0.00008  0.19133 -0.00042  0.14395
                  z   0.00012  0.00008  0.02475 -0.00067 -0.14594 -0.00060
  6   c           x  -0.10942  0.12055 -0.00001  0.27119 -0.00000  0.08063
                  y  -0.06219  0.08626 -0.00007  0.07438  0.00012  0.49584
                  z   0.00026 -0.00033 -0.02168 -0.00040  0.02183 -0.00157
  7   c           x  -0.14334  0.17435 -0.00000  0.08431 -0.00000 -0.08395
                  y  -0.11317  0.19547 -0.00002 -0.15228  0.00012  0.12590
                  z   0.00045 -0.00071 -0.00432  0.00041  0.03675 -0.00028
  8   s           x   0.13169 -0.10051  0.00002 -0.06053 -0.00003 -0.15244
                  y   0.10828 -0.03681  0.00005 -0.19745 -0.00013  0.06826
                  z  -0.00040  0.00016  0.01847  0.00063 -0.04066 -0.00011
  9   c           x  -0.09344  0.07165 -0.00008  0.08399  0.00028 -0.04474
                  y  -0.02704  0.05726 -0.00038  0.03825  0.00139 -0.19677
                  z   0.00012 -0.00017 -0.12975 -0.00016  0.46787  0.00055
 10   n           x  -0.11694  0.20743  0.00005  0.09243 -0.00006 -0.02826
                  y  -0.00817 -0.04935  0.00022  0.09297 -0.00019 -0.22718
                  z   0.00013 -0.00003  0.07190 -0.00034 -0.05743  0.00077
 11   c           x  -0.06796 -0.00023 -0.00001  0.04728 -0.00044 -0.03353
                  y  -0.03023  0.01258 -0.00002  0.01613 -0.00208 -0.12982
                  z   0.00010 -0.00000 -0.00938 -0.00007 -0.72657  0.00044
 12   s           x   0.07749  0.12343  0.00002  0.03061  0.00005 -0.03543
                  y   0.28889  0.16441  0.00008  0.00526  0.00018  0.05858
                  z  -0.00091 -0.00057  0.02565 -0.00004  0.06907 -0.00015
 13   n           x   0.02903 -0.05425  0.00008 -0.01552  0.00018 -0.03482
                  y  -0.20123 -0.04285  0.00043  0.04287  0.00083 -0.10595
                  z   0.00058  0.00014  0.14328 -0.00013  0.25916  0.00034
 14   c           x   0.00925 -0.17703 -0.00019 -0.07739 -0.00001  0.04069
                  y  -0.23698 -0.20640 -0.00085 -0.03881 -0.00008  0.03709
                  z   0.00075  0.00071 -0.28089  0.00017 -0.02287 -0.00014
 15   c           x   0.15105  0.04602 -0.00005 -0.02083 -0.00004  0.00951
                  y  -0.27232 -0.18604 -0.00027 -0.02842 -0.00018  0.07281
                  z   0.00073  0.00053 -0.08837  0.00010 -0.04660 -0.00023
 16   h           x   0.04997  0.04165 -0.22148 -0.00204 -0.10885 -0.01980
                  y  -0.37583 -0.16012  0.54553  0.00386  0.14037  0.03335
                  z   0.01916  0.01426  0.27782  0.00193  0.07770 -0.00068
 17   h           x   0.04984  0.04163  0.22184 -0.00206  0.10897 -0.01980
                  y  -0.37576 -0.16025 -0.54387  0.00388 -0.13994  0.03334
                  z  -0.01708 -0.01334  0.28081 -0.00197  0.07840  0.00051
 18   o           x  -0.19217 -0.31763  0.00005 -0.10706 -0.00002  0.08719
                  y   0.08570 -0.05407  0.00030 -0.03088  0.00001 -0.00195
                  z  -0.00015  0.00038  0.10048  0.00016  0.00178 -0.00005
 19   h           x  -0.27816  0.50239  0.00002 -0.49793 -0.00004 -0.03811
                  y  -0.23389  0.20814  0.00011 -0.08061 -0.00016 -0.27078
                  z   0.00092 -0.00099  0.03829  0.00053 -0.04487  0.00092
 20   br          x   0.04687 -0.05569  0.00000 -0.00715  0.00000 -0.00538
                  y   0.02714 -0.03277  0.00000  0.01248 -0.00000  0.00130
                  z  -0.00011  0.00013  0.00064 -0.00003 -0.00195 -0.00000
 21   h           x  -0.07027 -0.03597 -0.00003  0.56280  0.00013  0.18020
                  y  -0.06276  0.08610 -0.00018  0.07505  0.00070  0.50504
                  z   0.00023 -0.00021 -0.05816 -0.00059  0.20962 -0.00164

reduced mass(g/mol)    10.222   10.112    2.742    6.836   10.950    8.874


       mode              31       32       33       34       35       36

     frequency         706.86   711.72   750.23   752.83   820.84   837.42

     symmetry            a        a        a        a        a        a   

        IR               YES      YES      YES      YES      YES      YES
|dDIP/dQ|   (a.u.)     0.0019   0.0005   0.0024   0.0004   0.0024   0.0054
intensity (km/mol)       6.72     0.36    10.05     0.25    10.43    52.64
intensity (  %   )       0.35     0.02     0.52     0.01     0.54     2.71
 
       RAMAN             YES      YES      YES      YES      YES      YES
 
  1   o           x   0.11637  0.00004 -0.03062  0.00003 -0.01256  0.11648
                  y  -0.14973  0.00030  0.06725  0.00017  0.00571 -0.03788
                  z   0.00039  0.09438 -0.00018  0.05523 -0.00001  0.00005
  2   c           x   0.09409 -0.00020 -0.04461 -0.00015 -0.00701  0.04896
                  y  -0.12593 -0.00097  0.02185 -0.00073  0.00714 -0.08258
                  z   0.00028 -0.33253 -0.00004 -0.24106 -0.00002  0.00020
  3   c           x   0.07976 -0.00006 -0.06562 -0.00001  0.01074 -0.13708
                  y  -0.16138 -0.00023  0.10897 -0.00000 -0.01847  0.19824
                  z   0.00044 -0.09229 -0.00029 -0.00195  0.00005 -0.00049
  4   c           x   0.07732  0.00019 -0.00730 -0.00008  0.01280 -0.11789
                  y  -0.04435  0.00106  0.12271 -0.00033 -0.00696  0.11378
                  z   0.00008  0.36071 -0.00034 -0.11487  0.00001 -0.00026
  5   c           x  -0.08178 -0.00029  0.04299  0.00014  0.00303  0.02476
                  y   0.04998 -0.00119 -0.00957  0.00063  0.00548 -0.07244
                  z  -0.00009 -0.38515 -0.00003  0.20949 -0.00001  0.00018
  6   c           x  -0.25243 -0.00003  0.13727 -0.00003  0.02827 -0.16140
                  y   0.23916 -0.00022 -0.05971 -0.00018  0.00535  0.00770
                  z  -0.00057 -0.03898  0.00009 -0.05564 -0.00003  0.00008
  7   c           x  -0.26490  0.00019  0.11376  0.00012  0.02451 -0.15840
                  y   0.09183  0.00069 -0.06513  0.00048  0.00227 -0.01231
                  z  -0.00008  0.23057  0.00013  0.15168 -0.00002  0.00015
  8   s           x  -0.00773  0.00003  0.00165 -0.00000  0.00711 -0.01555
                  y  -0.11474 -0.00004  0.14454 -0.00001 -0.00638  0.05166
                  z   0.00035 -0.00706 -0.00043 -0.00335  0.00001 -0.00014
  9   c           x   0.04660 -0.00013 -0.10100  0.00003 -0.05220  0.23686
                  y   0.15201 -0.00055 -0.30696  0.00013  0.02380 -0.17029
                  z  -0.00055 -0.20183  0.00093  0.04770 -0.00004  0.00036
 10   n           x  -0.00925  0.00016 -0.10729 -0.00004 -0.01797  0.13930
                  y   0.17340  0.00081 -0.40192 -0.00023 -0.01906 -0.09427
                  z  -0.00050  0.24939  0.00130 -0.07408  0.00007  0.00020
 11   c           x   0.09729  0.00002  0.05741 -0.00001 -0.03604  0.24089
                  y   0.32113  0.00014  0.26202 -0.00004  0.07632 -0.14578
                  z  -0.00092  0.05001 -0.00077 -0.01173 -0.00020  0.00028
 12   s           x   0.06022 -0.00000  0.03062  0.00000 -0.14731 -0.05205
                  y  -0.12773 -0.00002 -0.08081  0.00001 -0.02783  0.03013
                  z   0.00033 -0.00526  0.00022  0.00154  0.00018 -0.00005
 13   n           x   0.09326 -0.00001  0.05516  0.00000 -0.03712  0.08133
                  y   0.30832 -0.00003  0.33193  0.00000  0.07769  0.02340
                  z  -0.00102 -0.00707 -0.00104  0.00093 -0.00021 -0.00013
 14   c           x  -0.05447 -0.00000  0.02272  0.00000 -0.04528 -0.08357
                  y  -0.06506 -0.00001  0.00774  0.00001 -0.03788 -0.04551
                  z   0.00023 -0.00349 -0.00004  0.00256  0.00015  0.00020
 15   c           x  -0.03531  0.00001 -0.04646 -0.00000  0.48572  0.02446
                  y  -0.22734  0.00002 -0.29142 -0.00000  0.02504  0.11241
                  z   0.00072  0.00194  0.00092 -0.00166 -0.00039 -0.00037
 16   h           x   0.01120  0.01364 -0.05677 -0.00802  0.55774  0.07668
                  y  -0.17038  0.00374 -0.31958 -0.00026  0.19819  0.19993
                  z   0.00099 -0.00457  0.00063  0.00294  0.03451  0.00149
 17   h           x   0.01116 -0.01363 -0.05682  0.00802  0.55778  0.07678
                  y  -0.17031 -0.00374 -0.31952  0.00028  0.19800  0.19987
                  z  -0.00002 -0.00453  0.00133  0.00293 -0.03639 -0.00275
 18   o           x  -0.16130  0.00000 -0.03124  0.00000 -0.04336 -0.12286
                  y   0.03224 -0.00000  0.06318 -0.00000 -0.07177 -0.04452
                  z   0.00001  0.00041 -0.00017 -0.00069  0.00024  0.00021
 19   h           x  -0.02758  0.00039 -0.14502  0.00051  0.04324 -0.52482
                  y  -0.16994  0.00172  0.11237  0.00254 -0.01787  0.19316
                  z   0.00060  0.55912 -0.00023  0.84833  0.00003 -0.00036
 20   br          x   0.02233 -0.00001 -0.00830 -0.00000 -0.00212  0.01220
                  y   0.00518 -0.00002 -0.00052 -0.00001 -0.00051  0.00314
                  z  -0.00003 -0.00604  0.00001 -0.00131  0.00000 -0.00002
 21   h           x  -0.38815  0.00022  0.29590 -0.00026  0.06329 -0.42812
                  y   0.24295  0.00098 -0.06042 -0.00112  0.00618  0.00224
                  z  -0.00054  0.34667  0.00003 -0.35764 -0.00007  0.00031

reduced mass(g/mol)     9.956    7.408    9.505    2.707    4.703    5.884


       mode              37       38       39       40       41       42

     frequency         861.69   885.31   896.08   910.37   916.86   963.38

     symmetry            a        a        a        a        a        a   

        IR               YES      YES      YES      YES      YES      YES
|dDIP/dQ|   (a.u.)     0.0039   0.0059   0.0022   0.0029   0.0021   0.0126
intensity (km/mol)      26.59    61.15     8.81    14.60     7.87   281.76
intensity (  %   )       1.37     3.14     0.45     0.75     0.40    14.48
 
       RAMAN             YES      YES      YES      YES      YES      YES
 
  1   o           x  -0.00004 -0.11149  0.08523  0.00000 -0.00001  0.08054
                  y  -0.00016  0.03774 -0.03351  0.00004  0.00000 -0.04260
                  z  -0.05250 -0.00003  0.00004  0.01137 -0.00011  0.00006
  2   c           x   0.00010 -0.04322  0.03875 -0.00003 -0.00000  0.07016
                  y   0.00057  0.08268 -0.05558 -0.00013  0.00001 -0.00317
                  z   0.18614 -0.00028  0.00018 -0.04484  0.00049  0.00002
  3   c           x  -0.00010  0.15831 -0.11670  0.00002  0.00001 -0.17684
                  y  -0.00058 -0.10470  0.06758  0.00008 -0.00001 -0.22675
                  z  -0.19551  0.00026 -0.00016  0.02417 -0.00205  0.00077
  4   c           x   0.00005  0.16213 -0.13323  0.00000  0.00002 -0.16983
                  y   0.00016 -0.02873 -0.00764  0.00001  0.00001 -0.11000
                  z   0.05315 -0.00003  0.00012  0.00609  0.00048  0.00045
  5   c           x  -0.00002 -0.09009  0.05980 -0.00005 -0.00000 -0.11258
                  y  -0.00004  0.11713 -0.07919 -0.00021  0.00002  0.01153
                  z  -0.01773 -0.00028  0.00019 -0.07125  0.00420  0.00003
  6   c           x   0.00003 -0.00911 -0.02635  0.00012 -0.00000  0.07282
                  y   0.00014 -0.11013  0.05804  0.00052 -0.00002 -0.01781
                  z   0.04528  0.00032 -0.00015  0.16883 -0.00338  0.00003
  7   c           x  -0.00008 -0.03230  0.00924 -0.00003 -0.00001  0.41393
                  y  -0.00024 -0.10633  0.09000 -0.00013 -0.00001  0.39263
                  z  -0.06819  0.00037 -0.00029 -0.03955  0.00107 -0.00149
  8   s           x  -0.00001 -0.08028  0.03188  0.00000 -0.00000  0.04146
                  y  -0.00001  0.02573 -0.01167  0.00000  0.00000  0.03025
                  z  -0.00420 -0.00002  0.00001  0.00013  0.00037 -0.00012
  9   c           x   0.00002  0.22811 -0.00929  0.00000  0.00001  0.02386
                  y  -0.00002 -0.22097  0.09341 -0.00000 -0.00000 -0.12467
                  z  -0.00041  0.00052 -0.00026 -0.00059  0.00301  0.00036
[...]
 
  1   o           x  -0.04796  0.00000 -0.01047 -0.00063 -0.02431 -0.05539
                  y   0.02069 -0.00000 -0.01898 -0.00628  0.01609  0.05952
                  z  -0.00004 -0.00000  0.00006  0.00002 -0.00003 -0.00015
  2   c           x  -0.02209  0.00000  0.07436  0.02019 -0.01421 -0.12987
                  y  -0.01349  0.00000  0.11388  0.03454 -0.04820 -0.23785
                  z   0.00007 -0.00002 -0.00039 -0.00012  0.00016  0.00080
  3   c           x   0.02849 -0.00000 -0.02164 -0.01048  0.06554  0.20683
                  y  -0.06494  0.00000 -0.03820 -0.01371  0.07870  0.20031
                  z   0.00017  0.00009  0.00013  0.00005 -0.00028 -0.00073
  4   c           x   0.27337 -0.00000  0.03098  0.00158  0.03837  0.08418
                  y   0.23515 -0.00000 -0.03541 -0.01045 -0.07096 -0.12298
                  z  -0.00087 -0.00052  0.00009  0.00003  0.00019  0.00031
  5   c           x   0.04023 -0.00000 -0.03683 -0.00436 -0.00928 -0.09304
                  y  -0.01496 -0.00000 -0.02074 -0.00322 -0.05975 -0.22680
                  z  -0.00001 -0.00045  0.00009  0.00001  0.00019  0.00075
  6   c           x  -0.06871  0.00000 -0.03472 -0.01045  0.03995  0.11681
                  y  -0.14898  0.00000 -0.02363 -0.00560  0.03016  0.13579
                  z   0.00051  0.00062  0.00010  0.00002 -0.00012 -0.00049
  7   c           x   0.06952 -0.00000 -0.04391 -0.01016 -0.02564  0.06667
                  y   0.08024 -0.00000  0.04487  0.01022 -0.01048  0.01746
                  z  -0.00030 -0.00011 -0.00011 -0.00002  0.00005 -0.00010
  8   s           x  -0.05236  0.00000  0.00096  0.00064 -0.00841 -0.00367
                  y  -0.02702  0.00000  0.00037  0.00069  0.00924  0.00203
                  z   0.00011  0.00010 -0.00000 -0.00000 -0.00002 -0.00000
  9   c           x   0.00881 -0.00000 -0.00153  0.01195 -0.01551 -0.05867
                  y   0.01722 -0.00002  0.03294 -0.00103 -0.13699  0.07082
                  z  -0.00006 -0.00478 -0.00010 -0.00000  0.00042 -0.00018
 10   n           x   0.02462  0.00000  0.01916  0.00107  0.07392 -0.11053
                  y  -0.01091  0.00000 -0.02349 -0.00183  0.13742  0.05173
                  z   0.00002  0.00043  0.00006  0.00000 -0.00046 -0.00009
 11   c           x  -0.04609  0.00000  0.01349  0.00192 -0.05768  0.06838
                  y   0.02810  0.00001 -0.01437  0.00857 -0.06958 -0.06440
                  z  -0.00005  0.00262  0.00003 -0.00003  0.00025  0.00015
 12   s           x   0.00239  0.00001  0.00095 -0.00312 -0.00144 -0.00095
                  y  -0.00108  0.00004 -0.00297  0.01370  0.00691  0.00165
                  z   0.00000  0.01314  0.00001 -0.00004 -0.00002 -0.00000
 13   n           x  -0.01495  0.00002  0.00105  0.00411 -0.32718  0.10233
                  y  -0.02626  0.00006  0.00880 -0.04025  0.22909  0.00462
                  z   0.00009  0.02322 -0.00003  0.00012 -0.00047 -0.00008
 14   c           x  -0.00243 -0.00008 -0.00208 -0.01187  0.31828 -0.05604
                  y   0.01100 -0.00035 -0.00184  0.04528 -0.47183  0.07948
                  z  -0.00003 -0.11810  0.00000 -0.00012  0.00121 -0.00020
 15   c           x   0.00554  0.00001  0.02176 -0.09090 -0.08112  0.00055
                  y  -0.00722  0.00008  0.03362 -0.15249  0.06865 -0.02169
                  z   0.00002  0.03005 -0.00011  0.00051 -0.00015  0.00006
 16   h           x   0.00428 -0.39014 -0.09672  0.39869  0.18451 -0.00519
                  y  -0.00710 -0.58285 -0.13062  0.54379  0.25257  0.01436
                  z   0.00147  0.00281 -0.00183  0.01434 -0.07514  0.01725
 17   h           x   0.00429  0.39019 -0.09671  0.39863  0.18460 -0.00521
                  y  -0.00710  0.58292 -0.13058  0.54360  0.25302  0.01426
                  z  -0.00143 -0.00118  0.00274 -0.01812  0.07338 -0.01733
 18   o           x   0.01188  0.00001 -0.00825  0.02524  0.07392 -0.02658
                  y   0.00094  0.00006 -0.00598  0.01455  0.10530 -0.01851
                  z  -0.00001  0.02074  0.00002 -0.00006 -0.00037  0.00007
 19   h           x  -0.63255  0.00000 -0.62119 -0.14109 -0.44153 -0.76837
                  y  -0.06896  0.00000 -0.04832 -0.01652  0.07878  0.20590
                  z   0.00062  0.00101  0.00055  0.00014  0.00005 -0.00013
 20   br          x  -0.00182  0.00000  0.00060  0.00007  0.00075 -0.00246
                  y  -0.00190 -0.00000 -0.00083 -0.00027  0.00097  0.00108
                  z   0.00001 -0.00000  0.00000  0.00000 -0.00000 -0.00000
 21   h           x  -0.61966 -0.00000  0.72346  0.17643 -0.02491  0.08359
                  y  -0.15414 -0.00001 -0.02750 -0.00653  0.03057  0.15297
                  z   0.00086 -0.00162 -0.00040 -0.00010 -0.00007 -0.00052

reduced mass(g/mol)     3.153    1.191    1.395    1.448    7.944    4.785


       mode              49       50       51       52       53       54

     frequency        1295.42  1331.22  1430.22  1432.49  1506.88  1527.79

     symmetry            a        a        a        a        a        a   

        IR               YES      YES      YES      YES      YES      YES
|dDIP/dQ|   (a.u.)     0.0156   0.0041   0.0147   0.0100   0.0112   0.0263
intensity (km/mol)     432.63    30.14   383.90   178.62   222.94  1224.68
intensity (  %   )      22.24     1.55    19.73     9.18    11.46    62.96
 
       RAMAN             YES      YES      YES      YES      YES      YES
 
  1   o           x  -0.02388  0.03050 -0.03503 -0.01361 -0.00289 -0.03779
                  y  -0.00604  0.00198  0.02484  0.00955 -0.02000  0.00950
                  z   0.00003 -0.00003 -0.00005 -0.00002  0.00006 -0.00001
  2   c           x   0.07833 -0.09469 -0.01564 -0.00594  0.02371  0.11336
                  y   0.16254 -0.16597 -0.08019 -0.03298 -0.00847  0.12801
                  z  -0.00055  0.00056  0.00025  0.00010  0.00001 -0.00046
  3   c           x  -0.00555  0.01395  0.12016  0.04800  0.11168 -0.06078
                  y   0.00769  0.04641  0.03581  0.01468 -0.03080 -0.09592
                  z  -0.00002 -0.00015 -0.00018 -0.00007  0.00002  0.00033
  4   c           x  -0.01601 -0.00612 -0.03982 -0.01652 -0.10043  0.05907
                  y  -0.14477  0.06223 -0.14534 -0.05782  0.03405  0.19294
                  z   0.00044 -0.00018  0.00046  0.00018 -0.00004 -0.00062
  5   c           x   0.12332 -0.02308 -0.10276 -0.03680  0.14170 -0.56440
                  y  -0.01168 -0.11122  0.27616  0.11091  0.08421 -0.17659
                  z  -0.00004  0.00035 -0.00076 -0.00031 -0.00035  0.00091
  6   c           x   0.05763 -0.04691 -0.03832 -0.01488  0.17585  0.12056
                  y   0.07737 -0.05122 -0.05910 -0.02693 -0.17693  0.21874
                  z  -0.00028  0.00019  0.00020  0.00009  0.00042 -0.00075
  7   c           x  -0.02419 -0.02330  0.03427  0.00907 -0.27821  0.12455
                  y  -0.17816  0.20171  0.02413  0.01317  0.17131 -0.22136
                  z   0.00056 -0.00060 -0.00010 -0.00005 -0.00034  0.00059
  8   s           x   0.00562 -0.00677 -0.00050 -0.00018  0.00429  0.00006
                  y   0.01447  0.00663  0.00582  0.00250 -0.00047 -0.00330
                  z  -0.00005 -0.00002 -0.00002 -0.00001 -0.00000  0.00001
  9   c           x   0.06138  0.12725  0.01875  0.00028 -0.57150 -0.19605
                  y  -0.19013 -0.25778 -0.00381 -0.01198 -0.25842 -0.10496
                  z   0.00053  0.00069 -0.00000  0.00004  0.00114  0.00044
 10   n           x  -0.05449  0.09077  0.10706  0.05026  0.27770  0.33891
                  y   0.13608  0.14449 -0.08609 -0.02728  0.21905  0.03933
                  z  -0.00037 -0.00049  0.00019  0.00005 -0.00083 -0.00034
 11   c           x  -0.09636 -0.11157  0.04305  0.00681 -0.05527  0.20248
                  y   0.15356  0.24256  0.06852  0.02299 -0.19599  0.09969
                  z  -0.00039 -0.00065 -0.00023 -0.00007  0.00061 -0.00042
 12   s           x   0.00030  0.00053 -0.00182  0.00157 -0.00011 -0.00209
                  y  -0.00610 -0.00816 -0.00070 -0.00275  0.00019 -0.00427
                  z   0.00002  0.00002  0.00000  0.00001  0.00000  0.00001
 13   n           x   0.00710 -0.06533 -0.05091 -0.01878  0.27892 -0.09199
                  y  -0.08478 -0.13662 -0.05898 -0.01298  0.11950 -0.10129
                  z   0.00025  0.00045  0.00021  0.00005 -0.00053  0.00036
 14   c           x  -0.03608 -0.02283 -0.00315  0.00761 -0.03617  0.02592
                  y   0.05698  0.05591  0.03579 -0.00342  0.07210  0.06852
                  z  -0.00015 -0.00015 -0.00010  0.00001 -0.00019 -0.00022
 15   c           x   0.02342  0.02453 -0.04986  0.06394 -0.01576  0.00258
                  y   0.00427  0.00639  0.03703 -0.04534 -0.01342 -0.00495
                  z  -0.00003 -0.00004 -0.00008  0.00010  0.00005  0.00001
 16   h           x  -0.04334 -0.03365  0.37157 -0.44683  0.09475 -0.02919
                  y  -0.08250 -0.09588 -0.28255  0.30547 -0.00106 -0.00905
                  z   0.00351 -0.00652 -0.36233  0.42546 -0.05864  0.01637
 17   h           x  -0.04335 -0.03364  0.37202 -0.44737  0.09482 -0.02922
                  y  -0.08253 -0.09585 -0.28039  0.30292 -0.00071 -0.00916
                  z  -0.00296  0.00714  0.36354 -0.42672  0.05852 -0.01628
 18   o           x   0.00780  0.02113 -0.00245  0.00408 -0.04977 -0.02319
                  y  -0.01018 -0.01010 -0.01239  0.00148 -0.01892 -0.02928
                  z   0.00003  0.00002  0.00004 -0.00001  0.00009  0.00010
 19   h           x  -0.64746  0.31850 -0.30579 -0.11974 -0.13626  0.19723
                  y  -0.00213  0.05533  0.02776  0.01151 -0.04453 -0.09815
                  z   0.00043 -0.00038  0.00012  0.00004  0.00022  0.00016
 20   br          x   0.00082 -0.00041  0.00012  0.00013  0.00338 -0.00255
                  y   0.00138 -0.00108 -0.00006 -0.00002  0.00037  0.00037
                  z  -0.00000  0.00000  0.00000  0.00000 -0.00000  0.00000
 21   h           x  -0.58190  0.74700 -0.16244 -0.06062 -0.15096 -0.27730
                  y   0.07921 -0.05576 -0.05725 -0.02697 -0.21940  0.26232
                  z   0.00015 -0.00033  0.00029  0.00012  0.00078 -0.00061

reduced mass(g/mol)     3.479    4.572    3.022    1.382   11.179   10.130


       mode              55       56       57       58       59       60

     frequency        1571.77  1617.77  1676.87  1733.87  1847.10  3076.31

     symmetry            a        a        a        a        a        a   

        IR               YES      YES      YES      YES      YES      YES
|dDIP/dQ|   (a.u.)     0.0067   0.0331   0.0164   0.0149   0.0186   0.0037
intensity (km/mol)      79.46  1945.29   477.18   392.78   613.43    23.79
intensity (  %   )       4.08   100.00    24.53    20.19    31.53     1.22
 
       RAMAN             YES      YES      YES      YES      YES      YES
 
  1   o           x  -0.04656 -0.07237 -0.15658 -0.38193  0.00599 -0.00003
                  y  -0.01564  0.03765  0.09246  0.21497 -0.00363  0.00002
                  z   0.00008 -0.00007 -0.00018 -0.00042  0.00001 -0.00000
  2   c           x   0.04574  0.01388  0.16972  0.66972 -0.00941  0.00004
                  y   0.05201  0.00080 -0.11162 -0.33137  0.00559 -0.00002
                  z  -0.00019 -0.00001  0.00024  0.00061 -0.00001  0.00000
  3   c           x   0.36866  0.27534  0.19272 -0.19642  0.00553 -0.00004
                  y  -0.18735 -0.12544 -0.07122  0.03747 -0.00200  0.00002
                  z   0.00033  0.00020  0.00009  0.00001  0.00000 -0.00000
  4   c           x  -0.38055 -0.27060 -0.22643  0.06254 -0.00568  0.00003
                  y   0.27178  0.17900  0.14745 -0.04301  0.00441 -0.00002
                  z  -0.00057 -0.00036 -0.00030  0.00009 -0.00001  0.00000
  5   c           x  -0.04133 -0.12819  0.35534 -0.04539 -0.00940  0.00000
                  y  -0.09797 -0.01235 -0.05867 -0.01137 -0.00282  0.00002
                  z   0.00033  0.00012 -0.00006  0.00006  0.00001 -0.00000
  6   c           x   0.34673 -0.22934 -0.40995  0.11923  0.00542  0.00001
                  y  -0.08537  0.12633  0.06914 -0.01645  0.00081 -0.00001
                  z   0.00003 -0.00023  0.00006 -0.00003 -0.00001  0.00000
  7   c           x  -0.26928  0.25165  0.23624 -0.12456 -0.00206  0.00002
                  y   0.11349 -0.14993 -0.12951  0.08560 -0.00150  0.00004
                  z  -0.00017  0.00029  0.00024 -0.00018  0.00001 -0.00000
  8   s           x   0.01091  0.00373  0.00992 -0.00030 -0.00147 -0.00001
                  y  -0.00579 -0.00219 -0.00212  0.00242  0.00079  0.00000
                  z   0.00001  0.00000  0.00000 -0.00001 -0.00000 -0.00000
  9   c           x   0.17008  0.20693 -0.26908  0.10679  0.09791 -0.00015
                  y   0.09285 -0.06496 -0.02691  0.00832  0.00577 -0.00002
                  z  -0.00039  0.00006  0.00025 -0.00009 -0.00008  0.00000
 10   n           x  -0.12821  0.14687 -0.04348 -0.03061 -0.01564  0.00002
                  y  -0.08444 -0.02206  0.08172 -0.01647 -0.01418  0.00005
                  z   0.00034 -0.00003 -0.00022  0.00007  0.00005 -0.00000
 11   c           x   0.10704 -0.49339  0.33183 -0.11850 -0.18278  0.00062
                  y   0.08708 -0.17779  0.07444 -0.01905 -0.05844 -0.00050
                  z  -0.00032  0.00083 -0.00043  0.00013  0.00029  0.00000
 12   s           x  -0.00137  0.00675 -0.00543  0.00184 -0.00562  0.00017
                  y   0.00036  0.00304 -0.00015 -0.00047  0.00025 -0.00009
                  z  -0.00000 -0.00001  0.00000  0.00000  0.00000  0.00000
 13   n           x  -0.13158  0.27185 -0.14562  0.05077  0.00829  0.00049
                  y  -0.06721  0.18061 -0.09144  0.02683  0.03143  0.00000
                  z   0.00028 -0.00071  0.00036 -0.00011 -0.00010 -0.00000
 14   c           x   0.01756 -0.09377  0.07477 -0.01924  0.73256 -0.00081
                  y  -0.01511 -0.06473  0.04184 -0.00483  0.36575 -0.00107
                  z   0.00004  0.00025 -0.00017  0.00003 -0.00156  0.00000
 15   c           x   0.00378  0.00161 -0.00405  0.00117 -0.02229 -0.05474
                  y   0.00585 -0.00605  0.00512 -0.00298 -0.01136  0.04157
                  z  -0.00002  0.00002 -0.00001  0.00001  0.00004 -0.00009
 16   h           x  -0.03221  0.06012 -0.03117  0.01412  0.02918  0.32128
                  y  -0.00696  0.01098 -0.00181  0.00189  0.08211 -0.23555
                  z   0.01572 -0.02573  0.01191 -0.00550  0.02143  0.58217
 17   h           x  -0.03223  0.06016 -0.03119  0.01413  0.02915  0.32054
                  y  -0.00706  0.01115 -0.00188  0.00192  0.08196 -0.23905
                  z  -0.01564  0.02559 -0.01186  0.00547 -0.02196 -0.58117
 18   o           x   0.01263  0.03984 -0.03856  0.00813 -0.44699  0.00015
                  y   0.00126  0.04309 -0.03072  0.00636 -0.25424 -0.00001
                  z  -0.00001 -0.00015  0.00012 -0.00002  0.00105 -0.00000
 19   h           x  -0.32345 -0.23173 -0.08256  0.35039 -0.00330 -0.00001
                  y  -0.23865 -0.16501 -0.10656  0.02357 -0.00149 -0.00021
                  z   0.00090  0.00063  0.00037 -0.00028  0.00001  0.00000
 20   br          x   0.00198 -0.00225 -0.00079 -0.00132  0.00014 -0.00000
                  y   0.00060 -0.00017 -0.00035 -0.00229  0.00010 -0.00000
                  z  -0.00000  0.00000  0.00000  0.00001 -0.00000  0.00000
 21   h           x  -0.31428  0.20587  0.41438 -0.09644 -0.00544  0.00004
                  y  -0.11392  0.16150  0.07960 -0.01792  0.00071  0.00014
                  z   0.00057 -0.00064 -0.00053  0.00013  0.00000 -0.00000

reduced mass(g/mol)     9.079   10.569   10.048   11.319   12.892    1.060


       mode              61       62       63

     frequency        3138.61  3210.85  3218.36

     symmetry            a        a        a   

        IR               YES      YES      YES
|dDIP/dQ|   (a.u.)     0.0009   0.0021   0.0011
intensity (km/mol)       1.34     7.52     2.28
intensity (  %   )       0.07     0.39     0.12
 
       RAMAN             YES      YES      YES
 
  1   o           x  -0.00000 -0.00060 -0.00029
                  y   0.00000  0.00025  0.00023
                  z  -0.00000 -0.00000 -0.00000
  2   c           x   0.00000  0.00337  0.00058
                  y   0.00000  0.00024 -0.00080
                  z   0.00000 -0.00000  0.00000
  3   c           x  -0.00000  0.00283  0.00018
                  y  -0.00000 -0.08630 -0.01033
                  z  -0.00000  0.00026  0.00003
  4   c           x  -0.00000 -0.00437 -0.00027
                  y  -0.00000  0.00216 -0.00030
                  z  -0.00001 -0.00000  0.00000
  5   c           x  -0.00000  0.00057 -0.00336
                  y   0.00000  0.00100 -0.00086
                  z   0.00001 -0.00000  0.00000
  6   c           x   0.00000 -0.00019 -0.00146
                  y  -0.00000 -0.01019  0.08726
                  z  -0.00000  0.00003 -0.00027
  7   c           x  -0.00000 -0.00062  0.00482
                  y   0.00000  0.00032 -0.00197
                  z  -0.00000 -0.00000  0.00000
  8   s           x   0.00000  0.00007 -0.00001
                  y  -0.00000 -0.00010 -0.00003
                  z   0.00000  0.00000  0.00000
  9   c           x   0.00000  0.00012  0.00054
                  y   0.00000 -0.00007  0.00005
                  z   0.00011  0.00000 -0.00000
 10   n           x   0.00000  0.00005  0.00008
                  y   0.00000 -0.00004 -0.00002
                  z   0.00002  0.00000  0.00000
 11   c           x   0.00000 -0.00004 -0.00025
                  y   0.00000  0.00001  0.00008
                  z   0.00012  0.00000 -0.00000
 12   s           x  -0.00000  0.00000  0.00001
                  y  -0.00000  0.00000 -0.00001
                  z  -0.00034 -0.00000  0.00000
 13   n           x   0.00000  0.00005  0.00014
                  y   0.00000 -0.00001 -0.00000
                  z   0.00020  0.00000 -0.00000
 14   c           x   0.00000 -0.00007 -0.00013
                  y   0.00000 -0.00001  0.00003
                  z   0.00036  0.00000 -0.00000
 15   c           x   0.00006 -0.00001  0.00000
                  y   0.00029 -0.00000 -0.00001
                  z   0.09569 -0.00000  0.00000
 16   h           x  -0.33223  0.00010  0.00009
                  y   0.24847 -0.00005 -0.00005
                  z  -0.56860  0.00010  0.00009
 17   h           x   0.33150  0.00010  0.00009
                  y  -0.25189 -0.00005 -0.00005
                  z  -0.56752 -0.00010 -0.00009
 18   o           x  -0.00000  0.00003  0.00005
                  y  -0.00000  0.00001  0.00001
                  z  -0.00021 -0.00000 -0.00000
 19   h           x  -0.00000 -0.01409 -0.00171
                  y  -0.00000  0.98918  0.11708
                  z  -0.00000 -0.00295 -0.00035
 20   br          x  -0.00000  0.00000 -0.00006
                  y   0.00000 -0.00000 -0.00002
                  z   0.00000  0.00000  0.00000
 21   h           x   0.00000 -0.00004 -0.00111
                  y   0.00000  0.11710 -0.98920
                  z   0.00001 -0.00036  0.00307

reduced mass(g/mol)     1.109    1.092    1.093
 

         **************************************************************
         *                                                            *
         *  zero point VIBRATIONAL energy  :      0.1252802  Hartree  *
         *    SCF-energy                   :  -4011.7324966           *
         *    SCF + E(vib0)                :  -4011.6072164           *
         *                                                            *
         **************************************************************




 time elapsed for vibrational analysis     0.04 sec


    ------------------------------------------------------------------------
         total  cpu-time : 36 minutes and 44 seconds
         total wall-time : 36 minutes and 45 seconds
    ------------------------------------------------------------------------

   ****  force : all done  ****


    2018-02-07 14:58:08.633 

aoforce ended normally 
