
OPTIMIZATION CYCLE 326
Wed Mar  7 23:00:28 PST 2018
 hostname is c-8-253.local

 frog (c-8-253.local) : TURBOMOLE V7.1 ( ) 5 Apr 2016 at 11:29:09
 Copyright (C) 2016 TURBOMOLE GmbH, Karlsruhe


    2018-03-07 23:00:28.685 


 frog (c-8-253.local) : TURBOMOLE V7.1 ( ) 5 Apr 2016 at 11:29:09
 Copyright (C) 2016 TURBOMOLE GmbH, Karlsruhe


    2018-03-07 23:00:28.685 

 
       `--._            A b     I n i t i o           .-
            `.  M o l e c u l a r   D y n a m i c s  /
              \               .-.       .           / 
               \             /   \     / `.        /  
                `-----._    /     `._.'    `--.__.'   
                        `--'                          
 
 

Reading information from mdmaster                                                                        
 
 =========================================
 TDDFT-SURFACE HOPPING switched on
 Tapavicza, Meyer, and Furche,
 Phys. Chem. Chem. Phys. 13 (2011), 20986.
 =========================================
 
 found keyword $gap_threshold; hop is enforced if gap <  0.500000000000000     
Reading log history information from mdmaster                                                                        
Reading input data from mdlog.2                                                                         
Checking for non-default isotopic masses in control                                                                         
 
No constraints requested.
Reading status from mdmaster                                                                        
Reading actions from mdmaster                                                                        
Getting gradients from control                                                                         
 non-adiabatic coupling vector
 -7.765571296367700E-002 -0.231491097560970       9.890087442203201E-002
  5.787168469723200E-002  6.168390009141000E-002 -7.001673744260500E-002
 -3.696533033416700E-002 -0.148345302177070       0.108665230573880     
  1.709540316539100E-002  5.892939399089200E-002 -3.763867041874100E-002
  1.466000327758600E-002  1.502579386482000E-002  3.115706446644600E-002
 -5.755846155559900E-003 -3.835279669668100E-003 -6.411527943290200E-003
 -8.410768830040501E-003 -6.661368985502800E-002  2.296161795961500E-002
  8.582384897562601E-003 -2.061379502118200E-002 -1.770864818719200E-002
 -1.917803377471400E-002 -1.034527866426700E-002  1.066349794484900E-002
 leap: Read last 2 entries of RUN.dat
 Old state:           0
 New state:           0
 Propagating Coefficients
 
 ==============Surface Hopping Information================
 
 Probability from           1 to           2 : -1.633700066763954E-003
 Random number   0.832383812755635     
 
 COEFF OF STATE           1 = (0.988835952745401,-1.576500160526350E-002)
 COEFF OF STATE           2 = (0.130251684617155,7.063584031425610E-002)
 
 POPULATION OF STATE           1 =  0.978045076717520     
 POPULATION OF STATE           2 =  2.195492328250800E-002
 SUM OF ALL POPULATIONS =   1.00000000000003     
 
 =========================================================
 
Scaling KE by    1.01709975531    
 
Generating $log data for last completed MD step:                                
t=   13000.0000000                                                              
-0.153006224459     -0.978797985469E-01 -0.809174425798E-01 ti                  
  1.77745192241      -2.88662422844       2.14475582441     o                   
 -3.52230420191     -0.414287039622      -2.08629840367     o                   
 -4.15874762042      -1.11555505664      -3.66115757732     h                   
-0.689407925519       2.61002023354       1.91613654604     o                   
 -1.92310269314       2.84507217493       3.37907256955     h                   
  2.90511880978      0.998971396319      -1.87114362233     o                   
  4.03627278936     -0.382997575590      -1.20672072024     h                   
  1.84273452655      -1.58527507514       3.69204953542     h                   
  40.0000000000       0.00000000000                                             
ti       -0.877487311745E-04 -0.309812253271E-03  0.291665297141E-03            
o        -0.874411876596E-03  0.834515308040E-03 -0.951572833449E-03            
o         0.110726659291E-02 -0.117541935262E-03  0.175271530614E-03            
h         0.678626869433E-03  0.326962686685E-02  0.631035765991E-02            
o        -0.710434320500E-05 -0.217070591407E-03 -0.577575666835E-04            
h        -0.110523010809E-02  0.158830050202E-02 -0.155157413945E-02            
o        -0.165713572953E-03 -0.794945532589E-04 -0.311162804791E-03            
h         0.486546871654E-02  0.242726546703E-02 -0.314294738903E-03            
h        -0.122189348658E-02  0.764379610980E-03 -0.126808653220E-03            
 0.151346093366      -1152.00711789       0.00000000000                         
-0.170359562542E-01 -0.275448277306E-02  0.223460952965E-01                     
 0.425098305917E-01 -0.994826270761E-01 -0.105609880457E-01                     
-0.630006436416E-01  0.304007831091E-03 -0.372190360280E-01                     
-0.107690045620E-01 -0.219477134009E-02 -0.885072897806E-02                     
 0.234776871000E-01  0.234652010411E-01 -0.243141163157E-01                     
-0.271191023098E-01  0.567680446238E-02  0.381533856422E-01                     
 0.423262750302E-01  0.493554451537E-01 -0.403611242884E-01                     
 0.124914337384E-01 -0.237794826168E-01  0.127106898902E-01                     
-0.288051968265E-02  0.494099053166E-01  0.480958228283E-01                     
 

   Time t=   13000.0000000     a.u. (  314.444000000     fs)

   e x e c u t i n g    M D   s t e p   (leapfrog algorithm)

   Number of MD steps left:    1174
 
   Time t=   13040.0000000     a.u. (  315.411520000     fs)

 
Provisional $current data:                                                      
t=   13040.0000000                                                              
-0.156204003867     -0.110221815054     -0.696603044483E-01 ti                  
  1.74014335569      -2.84778599370       2.10727228746     o                   
 -3.47455731940     -0.419005394919      -2.07724570407     o                   
 -4.12222502796     -0.982858801882      -3.40103616420     h                   
-0.690980086459       2.60005010766       1.91516011714     o                   
 -1.94369691431       2.90366090300       3.28378610162     h                   
  2.89616824507      0.993083971740      -1.88137592101     o                   
  4.22001415005     -0.265200073804      -1.23036082335     h                   
  1.79636710845      -1.59772543293       3.64509593404     h                   
  40.0000000000       0.00000000000                                             
ti       -0.806251035082E-04 -0.311177298784E-03  0.283824432882E-03            
o        -0.940654957512E-03  0.979222233996E-03 -0.945066454102E-03            
o         0.120383455293E-02 -0.118963141487E-03  0.228244274828E-03            
h         0.920838313433E-03  0.334564956139E-02  0.655839980789E-02            
o        -0.396386436762E-04 -0.251375197784E-03 -0.246185465845E-04            
h        -0.519238822114E-03  0.147718828035E-02 -0.240244255728E-02            
o        -0.225669164031E-03 -0.148438699322E-03 -0.257985318891E-03            
h         0.463264169677E-02  0.297000967286E-02 -0.596034158941E-03            
h        -0.116905433615E-02 -0.313908890401E-03 -0.118383368195E-02            
 
    50 energy records for statistics read from mdlog.2                                                                         
       Total Energy (H):
              current value   -1151.85577180    
                    average   -1151.85328333    
         standard deviation   0.385241364443E-02
                      drift  -0.329278682329E-05
        jump from last step  -0.212221346169E-02
 
     Kinetic Energy (H):
              current value   0.151346093366    
                    average   0.823211233562E-01
         standard deviation   0.218933001545E-01
                      drift  -0.251617474042E-02
 avg. quasi-temperature (K)    2475.48450832    
      number of constraints       0
 
         Pressure (GPa):
              current value    0.00000000000    
                    average    0.00000000000    
 
 
   approx integration error   0.598730380115E-01
 
Estimated integration error by reading last steps from mdlog.2                  
 
Generating $log data for last completed MD step:                                
t=   13000.0000000                                                              
-0.153006224459     -0.978797985469E-01 -0.809174425798E-01 ti                  
  1.77745192241      -2.88662422844       2.14475582441     o                   
 -3.52230420191     -0.414287039622      -2.08629840367     o                   
 -4.15874762042      -1.11555505664      -3.66115757732     h                   
-0.689407925519       2.61002023354       1.91613654604     o                   
 -1.92310269314       2.84507217493       3.37907256955     h                   
  2.90511880978      0.998971396319      -1.87114362233     o                   
  4.03627278936     -0.382997575590      -1.20672072024     h                   
  1.84273452655      -1.58527507514       3.69204953542     h                   
  40.0000000000       0.00000000000                                             
ti       -0.877487311745E-04 -0.309812253271E-03  0.291665297141E-03            
o        -0.874411876596E-03  0.834515308040E-03 -0.951572833449E-03            
o         0.110726659291E-02 -0.117541935262E-03  0.175271530614E-03            
h         0.678626869433E-03  0.326962686685E-02  0.631035765991E-02            
o        -0.710434320500E-05 -0.217070591407E-03 -0.577575666835E-04            
h        -0.110523010809E-02  0.158830050202E-02 -0.155157413945E-02            
o        -0.165713572953E-03 -0.794945532589E-04 -0.311162804791E-03            
h         0.486546871654E-02  0.242726546703E-02 -0.314294738903E-03            
h        -0.122189348658E-02  0.764379610980E-03 -0.126808653220E-03            
 0.151346093366      -1152.00711789       0.00000000000                         
-0.170359562542E-01 -0.275448277306E-02  0.223460952965E-01                     
 0.425098305917E-01 -0.994826270761E-01 -0.105609880457E-01                     
-0.630006436416E-01  0.304007831091E-03 -0.372190360280E-01                     
-0.107690045620E-01 -0.219477134009E-02 -0.885072897806E-02                     
 0.234776871000E-01  0.234652010411E-01 -0.243141163157E-01                     
-0.271191023098E-01  0.567680446238E-02  0.381533856422E-01                     
 0.423262750302E-01  0.493554451537E-01 -0.403611242884E-01                     
 0.124914337384E-01 -0.237794826168E-01  0.127106898902E-01                     
-0.288051968265E-02  0.494099053166E-01  0.480958228283E-01                     
 
Generated $current data for new MD step:                                        
t=   13040.0000000                                                              
-0.156204003867     -0.110221815054     -0.696603044483E-01 ti                  
  1.74014335569      -2.84778599370       2.10727228746     o                   
 -3.47455731940     -0.419005394919      -2.07724570407     o                   
 -4.12222502796     -0.982858801882      -3.40103616420     h                   
-0.690980086459       2.60005010766       1.91516011714     o                   
 -1.94369691431       2.90366090300       3.28378610162     h                   
  2.89616824507      0.993083971740      -1.88137592101     o                   
  4.22001415005     -0.265200073804      -1.23036082335     h                   
  1.79636710845      -1.59772543293       3.64509593404     h                   
  40.0000000000       0.00000000000                                             
ti       -0.806251035082E-04 -0.311177298784E-03  0.283824432882E-03            
o        -0.940654957512E-03  0.979222233996E-03 -0.945066454102E-03            
o         0.120383455293E-02 -0.118963141487E-03  0.228244274828E-03            
h         0.920838313433E-03  0.334564956139E-02  0.655839980789E-02            
o        -0.396386436762E-04 -0.251375197784E-03 -0.246185465845E-04            
h        -0.519238822114E-03  0.147718828035E-02 -0.240244255728E-02            
o        -0.225669164031E-03 -0.148438699322E-03 -0.257985318891E-03            
h         0.463264169677E-02  0.297000967286E-02 -0.596034158941E-03            
h        -0.116905433615E-02 -0.313908890401E-03 -0.118383368195E-02            
 
Logging MD run data ($log) to file mdlog.2                                                                         
Writing data for next step ($current) to mdlog.2                                                                         

    2018-03-07 23:00:29.203 

         total cpu-time :   0.52 seconds
         total wall-time :   0.52 seconds

          ******************************************************



    ------------------------------------------------------------------------
         total  cpu-time :   0.52 seconds
         total wall-time :   0.52 seconds
    ------------------------------------------------------------------------

   ****  frog : all done  ****


    2018-03-07 23:00:29.203 

 operating system is UNIX !
 hostname is c-8-253.local

 ridft (c-8-253.local) : TURBOMOLE V7.1 ( ) 5 Apr 2016 at 11:29:09
 Copyright (C) 2016 TURBOMOLE GmbH, Karlsruhe


    2018-03-07 23:00:29.349 



                                  r i d f t

                        DFT program with RI approximation 
                                for coulomb part 




                                                 
                                 References:     
                                                 
          TURBOMOLE:                             
              R. Ahlrichs, M. Baer, M. Haeser, H. Horn, and
              C. Koelmel
              Electronic structure calculations on workstation
              computers: the program system TURBOMOLE
              Chem. Phys. Lett. 162: 165 (1989)
          Density Functional:                              
              O. Treutler and R. Ahlrichs                      
              Efficient Molecular Numerical Integration Schemes
              J. Chem. Phys. 102: 346 (1995)                   
          Parallel Version:                                
              Performance of parallel TURBOMOLE for Density    
              Functional Calculations                          
              M. v. Arnim and R. Ahlrichs                      
              J. Comp. Chem. 19: 1746 (1998)                   
          RI-J Method:                                     
              Auxiliary Basis Sets to approximate Coulomb      
              Potentials                                       
              Chem. Phys. Lett. 240: 283 (1995)                
              K. Eichkorn, O. Treutler, H. Oehm, M. Haeser     
              and R. Ahlrichs                                  
              Chem. Phys. Lett. 242: 652 (1995)                
                                                           
              Auxiliary Basis Sets for Main Row Atoms and their
              Use to approximate Coulomb Potentials            
              K. Eichkorn, F. Weigend, O. Treutler and         
              R. Ahlrichs                                      
              Theo. Chem. Acc. 97: 119 (1997)                   
                                                           
              Accurate Coulomb-fitting basis sets for H to Rn 
              F. Weigend                                        
              Phys. Chem. Chem. Phys. 8: 1057 (2006)            
                                                           
          Multipole accelerated RI-J (MARI-J):             
              Fast evaluation of the Coulomb potential for     
              electron densities using multipole accelerated   
              resolution of identity approximation             
              M. Sierka, A. Hogekamp and R. Ahlrichs           
              J. Chem. Phys. 118: 9136 (2003)                  
          RI-JK Method:                                     
              A fully direct RI-HF algorithm: Implementation,
              optimised auxiliary basis sets, demonstration of
              accuracy and efficiency                         
              F. Weigend                                      
              Phys. Chem. Chem. Phys. 4: 4285 (2002)           
          Two-component HF and DFT with spin-orbit coupling:  
              Self-consistent treatment of spin-orbit         
              interactions with efficient Hartree-Fock and    
              density functional methods                      
              M. K. Armbruster, F. Weigend, C. van Wüllen and 
              W. Klopper                                      
              Phys. Chem. Chem. Phys. 10: 1748 (2008)         
          Relativistic all-electron 2c calculations           
              An efficient implementation of two-component    
              relativistic exact-decoupling methods for large 
              molecules                                       
              D. Peng, N. Middendorf, F. Weigend, M. Reiher   
              J. Chem. Phys. 138, 184105 (2013)               
                                         


 


              +--------------------------------------------------+
              |      general information about current run       |
              +--------------------------------------------------+

 

 DENSITY CONVERGENCE CHECK SWITCHED ON !
 SCF CONVERGENCE IF RMS(delta[D]) <     0.1000000000E-06

 PBE0 hybrid functional
 exchange:    3/4 (LDA+PBE) + 1/4 HF
 correlation: LDA (PW) + PBE
 A Hybrid-DFT calculation using the RI-J approximation will be carried out.
 Allocatable memory for RI due to $ricore (MB):         500


              +--------------------------------------------------+
              | Atomic coordinate, charge and isotop information |
              +--------------------------------------------------+

                    atomic coordinates            atom    charge  isotop
         -0.15620400   -0.11022182   -0.06966030    ti    22.000     0
          1.74014336   -2.84778599    2.10727229    o      8.000     0
         -3.47455732   -0.41900539   -2.07724570    o      8.000     0
         -4.12222503   -0.98285880   -3.40103616    h      1.000     0
         -0.69098009    2.60005011    1.91516012    o      8.000     0
         -1.94369691    2.90366090    3.28378610    h      1.000     0
          2.89616825    0.99308397   -1.88137592    o      8.000     0
          4.22001415   -0.26520007   -1.23036082    h      1.000     0
          1.79636711   -1.59772543    3.64509593    h      1.000     0
 
       center of nuclear mass  :   -0.00000002    0.00000000    0.00000001
       center of nuclear charge:    0.00483043    0.00420238    0.02199042

              +--------------------------------------------------+
              |               basis set information              |
              +--------------------------------------------------+

              we will work with the 1s 3p 5d 7f 9g ... basis set
              ...i.e. with spherical basis functions...

   type   atoms  prim   cont   basis
   ---------------------------------------------------------------------------
    ti       1     73     31   def2-SVP   [5s3p2d1f|14s9p5d1f]
    o        4     24     14   def2-SVP   [3s2p1d|7s4p1d]
    h        4      7      5   def2-SVP   [2s1p|4s1p]
   ---------------------------------------------------------------------------
   total:    9    197    107
   ---------------------------------------------------------------------------

   total number of primitive shells          :   46
   total number of contracted shells         :   47
   total number of cartesian basis functions :  116
   total number of SCF-basis functions       :  107


 integral neglect threshold       :  0.29E-10
 integral storage threshold THIZE :  0.10E-04
 integral storage threshold THIME :         5

 RI-J AUXILIARY BASIS SET information:

              we will work with the 1s 3p 5d 7f 9g ... basis set
              ...i.e. with spherical basis functions...

   type   atoms  prim   cont   basis
   ---------------------------------------------------------------------------
    ti       1    107     89   def2-SVP   [8s5p5d2f3g|19s5p5d3f3g]
    o        4     70     49   def2-SVP   [6s4p3d1f1g|12s5p4d2f1g]
    h        4     16     11   def2-SVP   [3s1p1d|5s2p1d]
   ---------------------------------------------------------------------------
   total:    9    451    329
   ---------------------------------------------------------------------------

   total number of primitive shells          :   67
   total number of contracted shells         :  103
   total number of cartesian basis functions :  410
   total number of SCF-basis functions       :  329


 symmetry group of the molecule :   c1 

 the group has the following generators :
   c1(z)

    1 symmetry operations found

 there are 1 real representations :   a   

 maximum number of shells which are related by symmetry :  1


    mo occupation :
   irrep   mo's   occupied
    a      107       29
 
 number of basis functions   :          107
 number of occupied orbitals :           29
 
  
           ------------------
           density functional
           ------------------
 PBE0 hybrid functional
 exchange:    3/4 (LDA+PBE) + 1/4 HF
 correlation: LDA (PW) + PBE
 iterations will be done with small grid
  
 spherical integration : Lebedev's spherical grid
 spherical gridsize    :           3
    i.e. gridpoints    :         302
 value for diffuse not defined
 radial integration    : Chebyshev 2nd kind (scaling 3)
 radial gridsize       :           3
 integration cells     :           9
 partition function    : becke
 partition sharpness   :           3
  

 biggest AO integral is expected to be    13.493451081
  
           ------------------------
               RI-J - INFORMATION
           ------------------------
 Contributions to RI integral batches: 
  neglected integral batches:          85
  direct contribution:                  0
  memory contribution:        1043
 Memory core needed for (P|Q) and Cholesky      1 MByte
 Memory core minimum needed except of (P|Q)     1 MByte
 Total minimum memory core needed (sum)         1 MByte
  
 ****************************************
 Memory allocated for RI-J    21 MByte
 ****************************************
                                            

          ------------------------
          nuclear repulsion energy  :   303.483168226    
          ------------------------

 
          -----------------
          -S,T+V- integrals
          -----------------

 1e-integrals will be neglected if expon. factor < 0.288100E-11
 
   Difference densities algorithm switched on.
   The maximal number of linear combinations of
   difference densities is          20 .

 DIIS switched on: error vector is FDS-SDF
 Max. Iterations for DIIS is     :   4
 DIIS matrix (see manual) 
    Scaling factor of diagonals  :  1.200
    threshold for scaling factor :  0.000

 scf convergence criterion : increment of total energy < .1000000D-06
                  and increment of one-electron energy < .1000000D-03

  MOs are in ASCII format !


 automatic virtual orbital shift switched on 
      shift if e(lumo)-e(homo) < 0.10000000    


 reading orbital data $scfmo  from file mos
 orbital characterization : scfconv=7

 DSCF restart information will be dumped onto file mos


 Starting SCF iterations

          Overall gridpoints after grid construction =         13506

 ITERATION  ENERGY          1e-ENERGY        2e-ENERGY     RMS[dD(SAO)]   TOL
   1  -1151.9890547522    -2183.9220151     728.44979212    0.000D+00 0.287D-10
                            Exc = -58.4025836368     Coul =  805.593353961    
                            exK = -18.7409782086    
                              N = 58.000720474    
                            current damping = 0.700
 
          max. resid. norm for Fia-block=  5.314D-02 for orbital     16a         
          max. resid. fock norm         =  1.425D-01 for orbital    107a         

 ITERATION  ENERGY          1e-ENERGY        2e-ENERGY     RMS[dD(SAO)]   TOL
   2  -1151.9966711211    -2183.8149174     728.33507808    0.171D-02 0.182D-10
                            Exc = -58.4343723025      Eck =  786.769450379    
                              N = 58.000698791    
                            current damping = 0.650
 
          Norm of current diis error: 0.10417    
          max. resid. norm for Fia-block=  2.426D-02 for orbital     15a         
          max. resid. fock norm         =  6.779D-02 for orbital    107a         

 ITERATION  ENERGY          1e-ENERGY        2e-ENERGY     RMS[dD(SAO)]   TOL
   3  -1151.9969520004    -2184.5865149     729.10639463    0.112D-02 0.152D-10
                            Exc = -58.4154207254      Eck =  787.521815356    
                              N = 58.000709175    
                            current damping = 0.600
 
          Norm of current diis error: 0.11889    
          max. resid. norm for Fia-block=  9.066D-03 for orbital     19a         
          max. resid. fock norm         =  2.697D-02 for orbital    107a         

 ITERATION  ENERGY          1e-ENERGY        2e-ENERGY     RMS[dD(SAO)]   TOL
   4  -1151.9987714954    -2183.9686456     728.48670592    0.632D-03 0.138D-10
                            Exc = -58.4249549757      Eck =  786.911660897    
                              N = 58.000699584    
                            current damping = 0.650
 
          Norm of current diis error: 0.39471E-01
          max. resid. norm for Fia-block=  5.209D-03 for orbital     19a         
          max. resid. fock norm         =  1.044D-02 for orbital    107a         

 ITERATION  ENERGY          1e-ENERGY        2e-ENERGY     RMS[dD(SAO)]   TOL
   5  -1151.9989670601    -2184.1330265     728.65089116    0.301D-03 0.134D-10
                            Exc = -58.4245632154      Eck =  787.075454380    
                              N = 58.000700075    
                            current damping = 0.700
 
          Norm of current diis error: 0.19102E-01
          max. resid. norm for Fia-block=  1.449D-03 for orbital     15a         
          max. resid. fock norm         =  3.955D-03 for orbital     52a         
          mo-orthogonalization: Cholesky decomposition

 ITERATION  ENERGY          1e-ENERGY        2e-ENERGY     RMS[dD(SAO)]   TOL
   6  -1151.9990200048    -2184.1032799     728.62109165    0.981D-04 0.128D-10
                            Exc = -58.4270789056      Eck =  787.048170559    
                              N = 58.000698680    
                            current damping = 0.750
 
          Norm of current diis error: 0.45655E-02
          max. resid. norm for Fia-block=  7.209D-04 for orbital     15a         
          max. resid. fock norm         =  1.834D-03 for orbital     52a         

 ITERATION  ENERGY          1e-ENERGY        2e-ENERGY     RMS[dD(SAO)]   TOL
   7  -1151.9990239187    -2184.0884238     728.60623165    0.345D-04 0.123D-10
                            Exc = -58.4263984606      Eck =  787.032630108    
                              N = 58.000698826    
                            current damping = 0.600
 
          Norm of current diis error: 0.21653E-02
          max. resid. norm for Fia-block=  3.406D-04 for orbital     19a         
          max. resid. fock norm         =  7.183D-04 for orbital    107a         

 ITERATION  ENERGY          1e-ENERGY        2e-ENERGY     RMS[dD(SAO)]   TOL
   8  -1151.9990248623    -2184.0823577     728.60016457    0.208D-04 0.119D-10
                            Exc = -58.4265804630      Eck =  787.026745038    
                              N = 58.000698619    
                            current damping = 0.450
 
          Norm of current diis error: 0.11080E-02
          max. resid. norm for Fia-block=  1.230D-04 for orbital     24a         
          max. resid. fock norm         =  2.744D-04 for orbital    107a         

 ITERATION  ENERGY          1e-ENERGY        2e-ENERGY     RMS[dD(SAO)]   TOL
   9  -1151.9990250970    -2184.0892429     728.60704955    0.106D-04 0.115D-10
                            Exc = -58.4267002237      Eck =  787.033749774    
                              N = 58.000698607    
                            current damping = 0.500
 
          Norm of current diis error: 0.60976E-03
          max. resid. norm for Fia-block=  4.800D-05 for orbital     15a         
          max. resid. fock norm         =  1.016D-04 for orbital     52a         

 ITERATION  ENERGY          1e-ENERGY        2e-ENERGY     RMS[dD(SAO)]   TOL
  10  -1151.9990251750    -2184.0863799     728.60418651    0.485D-05 0.111D-10
                            Exc = -58.4266384654      Eck =  787.030824971    
                              N = 58.000698618    
                            current damping = 0.550
 
          Norm of current diis error: 0.13411E-03
          max. resid. norm for Fia-block=  1.939D-05 for orbital     19a         
          max. resid. fock norm         =  2.765D-05 for orbital    107a         
          mo-orthogonalization: Cholesky decomposition

 ITERATION  ENERGY          1e-ENERGY        2e-ENERGY     RMS[dD(SAO)]   TOL
  11  -1151.9990251813    -2184.0859101     728.60371672    0.179D-05 0.109D-10
                            Exc = -58.4266228766      Eck =  787.030339592    
                              N = 58.000698600    
                            current damping = 0.400
 
          Norm of current diis error: 0.77692E-04
          max. resid. norm for Fia-block=  8.708D-06 for orbital     24a         
          max. resid. fock norm         =  1.075D-05 for orbital     31a         

 ITERATION  ENERGY          1e-ENERGY        2e-ENERGY     RMS[dD(SAO)]   TOL
  12  -1151.9990251834    -2184.0861011     728.60390769    0.950D-06 0.106D-10
                            Exc = -58.4266330733      Eck =  787.030540764    
                              N = 58.000698614    
                            current damping = 0.450
 
          Norm of current diis error: 0.53404E-04
          max. resid. norm for Fia-block=  4.395D-06 for orbital     25a         
          max. resid. fock norm         =  7.548D-06 for orbital     27a         

 ENERGY & DENSITY CONVERGED !

          Overall gridpoints after grid construction =         48667

 ITERATION  ENERGY          1e-ENERGY        2e-ENERGY     RMS[dD(SAO)]   TOL
  13  -1151.9985155789    -2184.0860632     728.60437944    0.474D-06 0.104D-10
                            Exc = -58.4261224179      Eck =  787.030501856    
                              N = 57.999945214    
                            current damping = 0.500
 
          Norm of current diis error: 0.29141E-04
          max. resid. norm for Fia-block=  2.170D-06 for orbital     23a         
          max. resid. fock norm         =  2.918D-06 for orbital     88a         

 End of SCF iterations

   convergence criteria satisfied after   13 iterations


                  ------------------------------------------ 
                 |  total energy      =  -1151.99851557887  |
                  ------------------------------------------ 
                 :  kinetic energy    =   1147.41668470286  :
                 :  potential energy  =  -2299.41520028173  :
                 :  virial theorem    =      1.99602271113  :
                 :  wavefunction norm =      1.00000000000  :
                  .......................................... 


 orbitals $scfmo  will be written to file mos

    irrep                 25a         26a         27a         28a         29a   
 eigenvalues H         -0.34801    -0.32546    -0.31760    -0.31351    -0.30213
            eV          -9.4699     -8.8562     -8.6425     -8.5312     -8.2214
 occupation              2.0000      2.0000      2.0000      2.0000      2.0000 

    irrep                 30a         31a         32a         33a         34a   
 eigenvalues H         -0.11069    -0.10786    -0.08557    -0.07048    -0.06393
            eV          -3.0122     -2.9352     -2.3285     -1.9178     -1.7395
 
 
 
 
 ==============================================================================
                           electrostatic moments
 ==============================================================================

 reference point for electrostatic moments:    0.00000   0.00000   0.00000

 
              nuc           elec       ->  total
 ------------------------------------------------------------------------------
                          charge      
 ------------------------------------------------------------------------------
          58.000000     -58.000000       0.000000
 
 ------------------------------------------------------------------------------
                       dipole moment  
 ------------------------------------------------------------------------------
   x       0.280165      -0.743846      -0.463681
   y       0.243738      -0.284060      -0.040322
   z       1.275445      -0.574898       0.700547
 
   | dipole moment | =     0.8411 a.u. =     2.1378 debye 
 
 ------------------------------------------------------------------------------
                     quadrupole moment
 ------------------------------------------------------------------------------
  xx     234.070076    -262.973047     -28.902971
  yy     140.543006    -173.940160     -33.397154
  zz     164.961245    -189.610258     -24.649013
  xy     -24.563883      23.830722      -0.733160
  xz      42.131100     -42.484921      -0.353821
  yz      -8.607196      13.599565       4.992369
 
     1/3  trace=     -28.983046
     anisotropy=      11.583233
 
 ==============================================================================
 


    ------------------------------------------------------------------------
         total  cpu-time :  10.63 seconds
         total wall-time :  10.65 seconds
    ------------------------------------------------------------------------

   ****  ridft : all done  ****


    2018-03-07 23:00:39.908 

fine, there is no data group "$actual step"
next step = rdgrad
 hostname is c-8-253.local
           Doing BLAS/Lapack in the master proc. with  8 CPUs.
           SMPCPUS    set: Shared-memory Parallelization with   8 CPUs.

           SMP Parallelization Reference:
           C. van Wullen, J. Comput. Chem. 32 (2011) 1195--1201

 egrad (c-8-253.local) : TURBOMOLE V7.1 ( ) 5 Apr 2016 at 11:29:09
 Copyright (C) 2016 TURBOMOLE GmbH, Karlsruhe


    2018-03-07 23:00:40.236 




                               e g r a d

                       quantum chemistry group
                       university of karlsruhe
                               germany


             integral direct evaluation of excited state
                     and polarizability gradients
                 and first-order nonadiabatic couplings



          references (see also programs escf, dscf and ridft) 

          review 
          F. Furche and D. Rappoport,  
          "Density functional methods for excited states: 
          equilibrium structure and electronic spectra",
          ch. III of "Computational Photochemistry", ed. by 
          M. Olivucci, vol. 16 of "Theoretical and Computational 
          Chemistry", Elsevier, Amsterdam, 2005.

          RI-J method 
          D. Rappoport and F. Furche, 
          J. Chem. Phys. 122 (2005), 064105.

          Lagrangian method, implementation, benchmarks 
          F. Furche and R. Ahlrichs,
          J. Chem. Phys. 117 (2002), 7433;
          J. Chem. Phys. 121 (2004), 12772 (E).

          Polarizability derivatives, Raman intensities 
          D. Rappoport and F. Furche, 
          J. Chem. Phys. 126 (2007), 201104.

          First-order nonadiabatic couplings 
          R. Send and F. Furche, 
          J. Chem. Phys. 132 (2010), 044107.
                                     




              +--------------------------------------------------+
              | Atomic coordinate, charge and isotop information |
              +--------------------------------------------------+

                    atomic coordinates            atom    charge  isotop
         -0.15620400   -0.11022182   -0.06966030    ti    22.000     0
          1.74014336   -2.84778599    2.10727229    o      8.000     0
         -3.47455732   -0.41900539   -2.07724570    o      8.000     0
         -4.12222503   -0.98285880   -3.40103616    h      1.000     0
         -0.69098009    2.60005011    1.91516012    o      8.000     0
         -1.94369691    2.90366090    3.28378610    h      1.000     0
          2.89616825    0.99308397   -1.88137592    o      8.000     0
          4.22001415   -0.26520007   -1.23036082    h      1.000     0
          1.79636711   -1.59772543    3.64509593    h      1.000     0
 
       center of nuclear mass  :   -0.00000002    0.00000000    0.00000001
       center of nuclear charge:    0.00483043    0.00420238    0.02199042

              +--------------------------------------------------+
              |               basis set information              |
              +--------------------------------------------------+

              we will work with the 1s 3p 5d 7f 9g ... basis set
              ...i.e. with spherical basis functions...

   type   atoms  prim   cont   basis
   ---------------------------------------------------------------------------
    ti       1     73     31   def2-SVP   [5s3p2d1f|14s9p5d1f]
    o        4     24     14   def2-SVP   [3s2p1d|7s4p1d]
    h        4      7      5   def2-SVP   [2s1p|4s1p]
   ---------------------------------------------------------------------------
   total:    9    197    107
   ---------------------------------------------------------------------------

   total number of primitive shells          :   46
   total number of contracted shells         :   47
   total number of cartesian basis functions :  116
   total number of SCF-basis functions       :  107


 residuum convergence criterium   :  0.10E-04


 integral neglect threshold       :  0.29E-10
 integral storage threshold THIZE :  0.10E-04
 integral storage threshold THIME :         5

 
             FOUND RI-J FLAG !
 
  
 AUXILIARY BASIS SET information:

              we will work with the 1s 3p 5d 7f 9g ... basis set
              ...i.e. with spherical basis functions...

   type   atoms  prim   cont   basis
   ---------------------------------------------------------------------------
    ti       1    107     89   def2-SVP   [8s5p5d2f3g|19s5p5d3f3g]
    o        4     70     49   def2-SVP   [6s4p3d1f1g|12s5p4d2f1g]
    h        4     16     11   def2-SVP   [3s1p1d|5s2p1d]
   ---------------------------------------------------------------------------
   total:    9    451    329
   ---------------------------------------------------------------------------

   total number of primitive shells          :   67
   total number of contracted shells         :  103
   total number of cartesian basis functions :  410
   total number of SCF-basis functions       :  329

 RPA SINGLET-EXCITATION-CALCULATION 
 
             FOUND DFT-FLAG !
 
 
 FOUND Nonadiabatic Coupling-FLAG !
 Note: the sign convention for NACME changed
 such that <0|d/dx|n> is now computed.

 symmetry group of the molecule :   c1 

 the group has the following generators :
   c1(z)

    1 symmetry operations found

 there are 1 real representations :   a   

 maximum number of shells which are related by symmetry :  1

 IRREP of excited state :   a   
 

 determining totally symmetric integral contributions 
    - equivalent to irreducible tensor elements - 
 which can be formed within each triple of representations :

             representation triple      contributions

              a     a     a               1

    mo occupation :
   irrep   mo's   occupied
    a      107       29
 
 number of basis functions   :          107
 number of occupied orbitals :           29
 
  
           ------------------
           density functional
           ------------------
 PBE0 hybrid functional
 exchange:    3/4 (LDA+PBE) + 1/4 HF
 correlation: LDA (PW) + PBE
 iterations will be done with small grid
  
 spherical integration : Lebedev's spherical grid
 spherical gridsize    :           3
    i.e. gridpoints    :         302
 value for diffuse not defined
 radial integration    : Chebyshev 2nd kind (scaling 3)
 radial gridsize       :           3
 integration cells     :           9
 partition function    : becke
 partition sharpness   :           3
  
 
 Derivatives of quadrature weights will be included
 
  
           ----------------------
               RI - INFORMATION
           ----------------------

 biggest AO integral is expected to be    13.493451081

 Threshold for integral neglect (rithr2):   0.29E-10
 Threshold for integral neglect (rithr1):   0.29E-10

 Contributions to RI integral batches: 
  neglected integral batches:          71
  direct contribution:                  0
  memory contribution:        1057
 Core memory available (ricore)            500 MiB
 Core memory needed for (P|Q) and Cholesky 1 MiB
 Core memory used for integrals            21 MiB
  
 ****************************************
 Memory allocated for RIDFT 22 MiB
 ****************************************
                                            
  MOs are in ASCII format !


 reading orbital data $scfmo  from file mos
 orbital characterization : scfconv=7
 preparing numerical integration ....
          Overall gridpoints after grid construction =         13506
 Ordering of quadrature gridpoints disabled.

 Calculating ground state density on molecular grid

 Integral of ground state density: N =   58.00069860822128    



 number of non-frozen orbitals          :   107
 number of non-frozen occupied orbitals :    29



                        -------------------
                         excitation vector 
                        -------------------


 dimension of super-tensorspace: 2

          IRREP   tensor space dimension   number of roots

           a              2262                   1

 maximum number of Davidson iterations set to   25


 machine precision: 2.22D-16


 logfile sing_a    exists already

 found      1 converged vectors on sing_a   
 read       1 vectors from logfile sing_a   



                       Nonorthonormal Krylov Space Iteration


 total number of roots to be determined:   1


 maximum core memory set to   500 MB,
 corresponding to     2317 vectors in CAO basis


 maximum number of simultaneously treated vectors (including degeneracy):        1


 Iteration IRREP Converged      Max. Euclidean
                 roots          residual norm

    1       a        0        4.149382195109046D-02
 
    2       a        0        1.868841246317364D-02
 
    3       a        0        8.022423996882988D-03
 
    4       a        0        4.340020591402141D-03
 
    5       a        0        5.303230305670007D-03
 
    6       a        0        4.250010400856425D-03
 
    7       a        0        2.371359578140563D-03
 
    8       a        0        1.960300104104270D-03
 
    9       a        0        1.581525242692010D-03
 
   10       a        0        1.026767927814235D-03
 
   11       a        0        9.318647455709232D-04
 
   12       a        0        1.177162462247440D-03
 
   13       a        0        1.068759957671646D-03
 
   14       a        0        1.085970541555466D-03
 
   15       a        0        7.557770861299495D-04
 
   16       a        0        8.242789600487687D-04
 
   17       a        0        6.664225643987132D-04
 
   18       a        0        5.174424653050666D-04
 
   19       a        0        4.178993323710504D-04
 
   20       a        0        1.991339416433407D-04
 
   21       a        0        9.369451211395592D-05
 
   22       a        0        5.362895908594258D-05
 
   23       a        0        3.846881435414945D-05
 
   24       a        0        1.754052515479426D-05
 
   25       a        0        1.001597519368025D-05
 


 Warning! No convergence within  25 iterations.
 Unless you have specified a very low $escfiterlimit/$forceiterlimit, 
 this is a reason to worry!



 IRREP   Vector     Eigenvalue           Euclidean residual norm

  a         1    1.334537071625128D-01    1.001597519368025D-05
 

 Deallocation failure for file unit arrays in <egrad>


========================
 internal module stack: 
------------------------
    egrad
========================

  abnormal termination
 egrad ended abnormally
error in gradient step (1)
