 operating system is UNIX !

 escf (nile) : TURBOMOLE V7.2 ( 21287 ) 3 Jul 2017 at 09:33:16
 Copyright (C) 2017 TURBOMOLE GmbH, Karlsruhe


    2018-02-07 14:22:17.024 




                                e s c f

                             TURBOMOLE GmbH


          integral direct evaluation of 

                    * excitation energies and transition moments 
                    * dynamic response properties 
                    * stabilities



          references (see also programs dscf and ridft) 

          implementation and benchmarks (review) 
          F. Furche and D. Rappoport,  
          "Density functional methods for excited states: 
          equilibrium structure and electronic spectra",
          ch. III of "Computational Photochemistry", ed. by 
          M. Olivucci, vol. 16 of "Theoretical and Computational 
          Chemistry", Elsevier, Amsterdam, 2005.

          nonorthonormal Krylov space methods 
          F. Furche, B. T. Krull, B. D. Nguyen, J. Kwon, 
          J. Chem. Phys. 144 (2016), 174105.

          two-component GW quasi particle energies 
          M. Kuehn and F. Weigend, 
          J. Chem. Theory Comput. 11 (2015), 969.

          two-component TDDFT with spin-orbit coupling 
          M. Kuehn and F. Weigend, 
          J. Chem. Theory Comput. 9 (2013), 5341.
          M. Kuehn and F. Weigend, 
          J. Chem. Phys. 142 (2015), 034116.

          GW quasi particle energies
          M. J. van Setten, F. Weigend, and F. Evers,
          J. Chem. Theory Comput. 9 (2013), 232.

          current-density dependent meta-GGA Linear Response
          J. E. Bates and F. Furche, 
          J. Chem. Phys. 137 (2012), 164105.

          spin-flip method 
          M. Kuehn and F. Weigend, 
          Chem. Phys. Chem. 12 (2011), 3331.

          RI-J method 
          R. Bauernschmitt, M. Haeser, O. Treutler, and R. Ahlrichs,
          Chem. Phys. Lett. 264 (1997), 573.

          density functional implementation               
          R. Bauernschmitt and R. Ahlrichs,
          Chem. Phys. Lett. 256 (1996), 454.
          R. Bauernschmitt and R. Ahlrichs,
          J. Chem. Phys. 104 (1996), 9047.

          UHF extension (RPA and CIS)
          C. Ochsenfeld, J. Gauss, and R. Ahlrichs, 
          J. Chem. Phys. 103 (1995), 7401.

          integral direct algorithm                 
          H. Weiss, R. Ahlrichs, and M. Haeser, 
          J. Chem. Phys. 99 (1993), 1262.
                                     




              +--------------------------------------------------+
              | Atomic coordinate, charge and isotop information |
              +--------------------------------------------------+

                    atomic coordinates            atom    charge  isotop
        -12.86871272    6.54900276    0.00652914    o      8.000     0
        -10.82297687    5.43394448    0.00289376    c      6.000     0
         -8.37339773    6.69472945    0.00865491    c      6.000     0
         -6.14212000    5.36176898    0.00494541    c      6.000     0
         -6.10465984    2.63854137   -0.00517653    c      6.000     0
         -8.45547573    1.32930428   -0.01158976    c      6.000     0
        -10.66360993    2.65843903   -0.00775436    c      6.000     0
         -3.04883871    6.46477488    0.01109665    s     16.000     0
         -1.99990584    3.28770023   -0.00024157    c      6.000     0
         -3.81330676    1.58056013   -0.00751086    n      7.000     0
          0.60946903    2.68632560   -0.00121938    c      6.000     0
          1.44125726   -0.58038206   -0.01278789    s     16.000     0
          2.43472654    4.34194238    0.00589154    n      7.000     0
          4.79551045    3.26693629    0.00377817    c      6.000     0
          4.71581387    0.34094062   -0.00691310    c      6.000     0
          5.70950423   -0.37808884    1.67777665    h      1.000     0
          5.71210951   -0.36584099   -1.69524410    h      1.000     0
          6.78956355    4.38666885    0.00935901    o      8.000     0
         -8.35015946   10.25892960    0.02149164    br    35.000     0
         -8.42605142   -0.73858123   -0.01947541    h      1.000     0
        -12.49414422    1.69446851   -0.01267993    h      1.000     0
 
       center of nuclear mass  :   -4.12780271    5.09258871    0.00515867
       center of nuclear charge:   -3.97768221    4.87304007    0.00444447

              +--------------------------------------------------+
              |               basis set information              |
              +--------------------------------------------------+

              we will work with the 1s 3p 5d 7f 9g ... basis set
              ...i.e. with spherical basis functions...

   type   atoms  prim   cont   basis
   ---------------------------------------------------------------------------
    o        2     24     14   def2-SV(P)   [3s2p1d|7s4p1d]
    c       10     24     14   def2-SV(P)   [3s2p1d|7s4p1d]
    s        2     36     18   def2-SV(P)   [4s3p1d|10s7p1d]
    n        2     24     14   def2-SV(P)   [3s2p1d|7s4p1d]
    h        4      4      2   def2-SV(P)   [2s|4s]
    br       1     74     32   def2-SV(P)   [5s4p3d|14s10p6d]
   ---------------------------------------------------------------------------
   total:   21    498    272
   ---------------------------------------------------------------------------

   total number of primitive shells          :   88
   total number of contracted shells         :  120
   total number of cartesian basis functions :  291
   total number of SCF-basis functions       :  272


 residuum convergence criterium   :  0.10E-04


 integral neglect threshold       :  0.11E-10
 integral storage threshold THIZE :  0.10E-04
 integral storage threshold THIME :         5

 
             FOUND RI-J FLAG !
 
  
 AUXILIARY BASIS SET information:

              we will work with the 1s 3p 5d 7f 9g ... basis set
              ...i.e. with spherical basis functions...

   type   atoms  prim   cont   basis
   ---------------------------------------------------------------------------
    o        2     70     49   def2-SV(P)   [6s4p3d1f1g|12s5p4d2f1g]
    c       10     70     49   def2-SV(P)   [6s4p3d1f1g|12s5p4d2f1g]
    s        2     77     51   def2-SV(P)   [8s4p3d1f1g|14s5p5d2f1g]
    n        2     70     49   def2-SV(P)   [6s4p3d1f1g|12s5p4d2f1g]
    h        4     16     11   def2-SV(P)   [3s1p1d|5s2p1d]
    br       1     89     58   def2-SV(P)   [8s4p3d2f1g|19s5p5d3f1g]
   ---------------------------------------------------------------------------
   total:   21   1287    890
   ---------------------------------------------------------------------------

   total number of primitive shells          :  140
   total number of contracted shells         :  282
   total number of cartesian basis functions : 1101
   total number of SCF-basis functions       :  890

 RPA SINGLET-EXCITATION-CALCULATION 
 
             FOUND DFT-FLAG !
 

 symmetry group of the molecule :   c1 

 the group has the following generators :
   c1(z)

    1 symmetry operations found

 there are 1 real representations :   a   

 maximum number of shells which are related by symmetry :  1

 IRREPs of excited states :   a   
 

 determining totally symmetric integral contributions 
    - equivalent to irreducible tensor elements - 
 which can be formed within each triple of representations :

             representation triple      contributions

              a     a     a               1

    mo occupation :
   irrep   mo's   occupied
    a      272       81
 
 number of basis functions   :                    272
 number of occupied orbitals :                     81
 
  
           ------------------
           density functional
           ------------------
 PBE0 hybrid functional
 exchange:    3/4 (LDA+PBE) + 1/4 HF
 correlation: LDA (PW) + PBE

 iterations will be done with small grid
  
 spherical integration : Lebedev's spherical grid
 spherical gridsize    :                     5
    i.e. gridpoints    :                   590
 value for diffuse not defined
 radial integration    : Chebyshev 2nd kind (scaling 3)
 radial gridsize       :                     8
 integration cells     :                    21
 partition function    : becke
 partition sharpness   :                     3
  
  
           ----------------------
               RI - INFORMATION
           ----------------------

 biggest AO integral is expected to be    21.668154127

 Threshold for integral neglect (rithr2):   0.11E-10
 Threshold for integral neglect (rithr1):   0.11E-10

 Contributions to RI integral batches: 
  neglected integral batches:                  2101
  direct contribution:                            0
  memory contribution:                  5159
 Core memory available (ricore)            5000 MiB
 Core memory needed for (P|Q) and Cholesky 7 MiB
 Core memory used for integrals            250 MiB
  
 ****************************************
 Memory allocated for RIDFT 256 MiB
 ****************************************
                                            
  MOs are in ASCII format !


 reading orbital data $scfmo  from file mos
 orbital characterization : scfconv=7
 preparing numerical integration ....
          Overall gridpoints after grid construction =        122153

 Calculating ground state density on molecular grid

 Integral of ground state density: N =   162.0000414559013    


 all orbitals will be included in the transformation

 number of non-frozen orbitals          :   272
 number of non-frozen occupied orbitals :    81



 dimension of super-tensorspace: 2

          IRREP   tensor space dimension   number of roots

           a             15471                   3

 maximum number of Davidson iterations set to   25


 machine precision: 2.22D-16


 logfile sing_a    will be constructed


                       Nonorthonormal Krylov Space Iteration


 total number of roots to be determined:   3


 maximum core memory set to  5000 MB,
 corresponding to     3796 vectors in CAO basis


 maximum number of simultaneously treated vectors (including degeneracy):        6


 Iteration IRREP Converged      Max. Euclidean
                 roots          residual norm

    1       a        0        1.503076276654072D-01
 
    2       a        0        5.172861762460143D-02
 
    3       a        0        1.179520060697381D-01
 
    4       a        0        2.711624089333893D-02
 
    5       a        0        1.287897874153455D-02
 
    6       a        0        5.454037013353247D-03
 
    7       a        0        2.099372382122159D-03
 
    8       a        0        7.951608071220598D-04
 
    9       a        1        3.009626318506784D-04
 
   10       a        1        1.035362353373390D-04
 
   11       a        2        2.976022095187390D-05
 
   12       a        2        1.110480800252723D-05
 
   13       a        3        5.866737014131733D-06
 

 converged!


 Switching to fine grid

 preparing numerical integration ....
          Overall gridpoints after grid construction =        372241

 Calculating ground state density on molecular grid

 Integral of ground state density: N =   162.0000032953596    



 Iteration IRREP Converged      Max. Euclidean
                 roots          residual norm

   14       a        3        9.511810368764466D-06
 

 converged!

 Eigenpairs written on logfile sing_a   



 IRREP   Vector     Eigenvalue           Euclidean residual norm

  a         1    9.593731808459335D-02    9.511810368764466D-06
            2    1.123039935498395D-01    5.744919561691985D-06
            3    1.330417208836072D-01    7.951685956719615D-06
 




                    Selection rules for point group c1  


 Subduction with respect to c1  :

    Polar vector representation: a                           

    Axial vector representation: a                           

    Symmetric second rank tensor representation: a                           




                            Ground state


 Total energy:                           -4011.732457600000    

 Charge:

               elec          nuc         total

          -162.000000   161.000000    -1.000000


 Electric dipole moment:

               elec          nuc         total   

    x      645.064873  -640.406837     4.658036    Norm:              7.590272
    y     -790.552351   784.559451    -5.992900
    z       -0.724117     0.715560    -0.008557    Norm / debye:     19.292692


 Electric quadrupole moment:

               elec          nuc         total   

   xx    -7907.333591  7733.917522  -173.416069
   yy    -6028.503137  5894.124567  -134.378571    1/3*trace:      -133.522343
   zz      -98.486505     5.714115   -92.772390
   xy     4929.862196 -4897.275349    32.586847
   xz        6.407718    -6.381525     0.026194    Anisotropy:       89.804934
   yz      -10.136872    10.067128    -0.069744



 ==============================================================================

                              I R R E P   a   

 ==============================================================================


 Excitation is electric dipole allowed

 Excitation is magnetic dipole allowed

 Excitation is electric quadrupole allowed




                         1 singlet a excitation


 Total energy:                           -4011.636520281916    

 Excitation energy:                      0.9593731808459335E-01

 Excitation energy / eV:                  2.610588369887175    

 Excitation energy / nm:                  474.9283549892881    

 Excitation energy / cm^(-1):             21055.80745696456    


 Oscillator strength:

    velocity representation:             0.4776733307002938    

    length representation:               0.5504246489474054    

    mixed representation:                0.5127580379120946    


 Rotatory strength:

    velocity representation:            -0.1607568468543901E-06

    velocity rep. / 10^(-40)erg*cm^3:   -0.1038566657707552E-01

    length representation:              -0.4224285104403747E-07

    length rep. / 10^(-40)erg*cm^3:     -0.2729091636176607E-02


 Dominant contributions:

      occ. orbital   energy / eV   virt. orbital     energy / eV   |coeff.|^2*100
       81 a              -2.10          82 a               0.64       93.3
 

 Change of electron number:

             0.000000


 Electric transition dipole moment (velocity rep.):

    x        2.684772        Norm:                  2.732860
    y       -0.510413
    z       -0.000327        Norm / debye:          6.946289


 Electric transition dipole moment (length rep.):

    x        2.880321        Norm:                  2.933599
    y       -0.556555
    z       -0.000403        Norm / debye:          7.456522


 Magnetic transition dipole moment / i:

    x       -0.000001        Norm:                  0.001752
    y       -0.000004
    z       -0.001752        Norm / Bohr mag.:      0.480203


 Electric quadrupole transition moment:

   xx      -21.372305
   yy       -4.970018        1/3*trace:            -8.740336
   zz        0.121315
   xy       12.856462
   xz        0.003234        Anisotropy:           29.569108
   yz       -0.005277




                         2 singlet a excitation


 Total energy:                           -4011.620153606450    

 Excitation energy:                      0.1123039935498395    

 Excitation energy / eV:                  3.055948459957807    

 Excitation energy / nm:                  405.7144471873068    

 Excitation energy / cm^(-1):             24647.87751048621    


 Oscillator strength:

    velocity representation:             0.4799460156245177E-04

    length representation:               0.6133823364965797E-05

    mixed representation:                0.1715704188556837E-04


 Rotatory strength:

    velocity representation:            -0.1921090889404671E-06

    velocity rep. / 10^(-40)erg*cm^3:   -0.1241117242097083E-01

    length representation:              -0.1688479328892609E-06

    length rep. / 10^(-40)erg*cm^3:     -0.1090838970488552E-01


 Dominant contributions:

      occ. orbital   energy / eV   virt. orbital     energy / eV   |coeff.|^2*100
       80 a              -3.43          82 a               0.64       96.6
 

 Change of electron number:

            -0.000000


 Electric transition dipole moment (velocity rep.):

    x       -0.000129        Norm:                  0.025319
    y        0.000100
    z       -0.025318        Norm / debye:          0.064355


 Electric transition dipole moment (length rep.):

    x       -0.000130        Norm:                  0.009051
    y        0.000020
    z       -0.009050        Norm / debye:          0.023006


 Magnetic transition dipole moment / i:

    x        0.001357        Norm:                  0.001614
    y       -0.000875
    z       -0.000003        Norm / Bohr mag.:      0.442352


 Electric quadrupole transition moment:

   xx        0.000650
   yy       -0.000671        1/3*trace:             0.000246
   zz        0.000758
   xy       -0.000659
   xz        0.158928        Anisotropy:            0.287907
   yz        0.048695




                         3 singlet a excitation


 Total energy:                           -4011.599415879116    

 Excitation energy:                      0.1330417208836072    

 Excitation energy / eV:                  3.620250974102399    

 Excitation energy / nm:                  342.4741679330916    

 Excitation energy / cm^(-1):             29199.28255862217    


 Oscillator strength:

    velocity representation:             0.2956934234937683    

    length representation:               0.3256977629963453    

    mixed representation:                0.3103254051863735    


 Rotatory strength:

    velocity representation:             0.8509300067040354E-06

    velocity rep. / 10^(-40)erg*cm^3:    0.5497417685768329E-01

    length representation:               0.1032929499925875E-05

    length rep. / 10^(-40)erg*cm^3:      0.6673222070331075E-01


 Dominant contributions:

      occ. orbital   energy / eV   virt. orbital     energy / eV   |coeff.|^2*100
       79 a              -3.68          82 a               0.64       93.4
 

 Change of electron number:

            -0.000000


 Electric transition dipole moment (velocity rep.):

    x       -1.770275        Norm:                  1.825881
    y        0.447177
    z        0.000656        Norm / debye:          4.640962


 Electric transition dipole moment (length rep.):

    x       -1.854552        Norm:                  1.916281
    y        0.482462
    z        0.000738        Norm / debye:          4.870736


 Magnetic transition dipole moment / i:

    x        0.000002        Norm:                  0.000382
    y        0.000012
    z       -0.000382        Norm / Bohr mag.:      0.104828


 Electric quadrupole transition moment:

   xx       11.458345
   yy        3.286557        1/3*trace:             4.925857
   zz        0.032668
   xy       -7.778686
   xz       -0.001679        Anisotropy:           16.896151
   yz        0.002230


    ------------------------------------------------------------------------
         total  cpu-time :  6 minutes and  9 seconds
         total wall-time :  6 minutes and  9 seconds
    ------------------------------------------------------------------------

   ****  escf : all done  ****


    2018-02-07 14:28:25.641 

 escf ended normally
