
Thu Feb  8 16:30:08 PST 2018
jobex WAS CALLED AS: jobex -ex -ri -c 300 -outfile exopt.out
AN OPTIMIZATION WITH MAX. 300 CYCLES WILL BE PERFORMED
CONVERGENCY CRITERION FOR TOTAL SCF-ENERGY IS 10**(-6)
CONVERGENCY CRITERION FOR MAXIMUM NORM OF SCF-ENERGY GRADIENT IS 10**(-3)
CONVERGENCY CRITERION FOR MAXIMUM NORM OF BASIS SET GRADIENT IS 10**(-3)
PROCEDURE WILL START WITH A dscf like STEP
AN EXCITED STATE GEOMETRY OPTIMIZATION WILL BE PERFORMED
LOAD MODULES WILL BE TAKEN FROM DIRECTORY /modfac/apps/TURBOMOLE/7.2.1-official/bin/em64t-unknown-linux-gnu
DSCF  = /modfac/apps/TURBOMOLE/7.2.1-official/bin/em64t-unknown-linux-gnu/ridft
GRAD  = /modfac/apps/TURBOMOLE/7.2.1-official/bin/em64t-unknown-linux-gnu/egrad
STATPT = /modfac/apps/TURBOMOLE/7.2.1-official/bin/em64t-unknown-linux-gnu/statpt

 operating system is UNIX !

 ridft (nile) : TURBOMOLE V7.2 ( 21454 ) 4 Oct 2017 at 12:48:15
 Copyright (C) 2017 TURBOMOLE GmbH, Karlsruhe


    2018-02-08 16:30:08.124 



                                  r i d f t

                        DFT program with RI approximation 
                                for coulomb part 




                                                 
                                 References:     
                                                 
          TURBOMOLE:                             
              R. Ahlrichs, M. Baer, M. Haeser, H. Horn, and
              C. Koelmel
              Electronic structure calculations on workstation
              computers: the program system TURBOMOLE
              Chem. Phys. Lett. 162: 165 (1989)
          Density Functional:                              
              O. Treutler and R. Ahlrichs                      
              Efficient Molecular Numerical Integration Schemes
              J. Chem. Phys. 102: 346 (1995)                   
          Parallel Version:                                
              Performance of parallel TURBOMOLE for Density    
              Functional Calculations                          
              M. v. Arnim and R. Ahlrichs                      
              J. Comp. Chem. 19: 1746 (1998)                   
          RI-J Method:                                     
              Auxiliary Basis Sets to approximate Coulomb      
              Potentials                                       
              Chem. Phys. Lett. 240: 283 (1995)                
              K. Eichkorn, O. Treutler, H. Oehm, M. Haeser     
              and R. Ahlrichs                                  
              Chem. Phys. Lett. 242: 652 (1995)                
                                                           
              Auxiliary Basis Sets for Main Row Atoms and their
              Use to approximate Coulomb Potentials            
              K. Eichkorn, F. Weigend, O. Treutler and         
              R. Ahlrichs                                      
              Theo. Chem. Acc. 97: 119 (1997)                   
                                                           
              Accurate Coulomb-fitting basis sets for H to Rn 
              F. Weigend                                        
              Phys. Chem. Chem. Phys. 8: 1057 (2006)            
                                                           
          Multipole accelerated RI-J (MARI-J):             
              Fast evaluation of the Coulomb potential for     
              electron densities using multipole accelerated   
              resolution of identity approximation             
              M. Sierka, A. Hogekamp and R. Ahlrichs           
              J. Chem. Phys. 118: 9136 (2003)                  
          RI-JK Method:                                     
              A fully direct RI-HF algorithm: Implementation,
              optimised auxiliary basis sets, demonstration of
              accuracy and efficiency                         
              F. Weigend                                      
              Phys. Chem. Chem. Phys. 4: 4285 (2002)           
          Two-component HF and DFT with spin-orbit coupling:  
              Self-consistent treatment of spin-orbit         
              interactions with efficient Hartree-Fock and    
              density functional methods                      
              M. K. Armbruster, F. Weigend, C. van Wüllen and 
              W. Klopper                                      
              Phys. Chem. Chem. Phys. 10: 1748 (2008)         
          Relativistic all-electron 2c calculations           
              An efficient implementation of two-component    
              relativistic exact-decoupling methods for large 
              molecules                                       
              D. Peng, N. Middendorf, F. Weigend, M. Reiher   
              J. Chem. Phys. 138, 184105 (2013)               
                                         




              +--------------------------------------------------+
              |      general information about current run       |
              +--------------------------------------------------+

 

 DENSITY CONVERGENCE CHECK SWITCHED ON !
 SCF CONVERGENCE IF RMS(delta[D]) <     0.1000000000E-06

 PBE0 hybrid functional
 exchange:    3/4 (LDA+PBE) + 1/4 HF
 correlation: LDA (PW) + PBE
 A Hybrid-DFT calculation using the RI-J approximation will be carried out.
 Allocatable memory for RI due to $ricore (MB):                  5000


              +--------------------------------------------------+
              | Atomic coordinate, charge and isotop information |
              +--------------------------------------------------+

                    atomic coordinates            atom    charge  isotop
        -12.86871272    6.54900276    0.00652914    o      8.000     0
        -10.82297687    5.43394448    0.00289376    c      6.000     0
         -8.37339773    6.69472945    0.00865491    c      6.000     0
         -6.14212000    5.36176898    0.00494541    c      6.000     0
         -6.10465984    2.63854137   -0.00517653    c      6.000     0
         -8.45547573    1.32930428   -0.01158976    c      6.000     0
        -10.66360993    2.65843903   -0.00775436    c      6.000     0
         -3.04883871    6.46477488    0.01109665    s     16.000     0
         -1.99990584    3.28770023   -0.00024157    c      6.000     0
         -3.81330676    1.58056013   -0.00751086    n      7.000     0
          0.60946903    2.68632560   -0.00121938    c      6.000     0
          1.44125726   -0.58038206   -0.01278789    s     16.000     0
          2.43472654    4.34194238    0.00589154    n      7.000     0
          4.79551045    3.26693629    0.00377817    c      6.000     0
          4.71581387    0.34094062   -0.00691310    c      6.000     0
          5.70950423   -0.37808884    1.67777665    h      1.000     0
          5.71210951   -0.36584099   -1.69524410    h      1.000     0
          6.78956355    4.38666885    0.00935901    o      8.000     0
         -8.35015946   10.25892960    0.02149164    br    35.000     0
         -8.42605142   -0.73858123   -0.01947541    h      1.000     0
        -12.49414422    1.69446851   -0.01267993    h      1.000     0
 
       center of nuclear mass  :   -4.12780271    5.09258871    0.00515867
       center of nuclear charge:   -3.97768221    4.87304007    0.00444447

              +--------------------------------------------------+
              |               basis set information              |
              +--------------------------------------------------+

              we will work with the 1s 3p 5d 7f 9g ... basis set
              ...i.e. with spherical basis functions...

   type   atoms  prim   cont   basis
   ---------------------------------------------------------------------------
    o        2     24     14   def2-SV(P)   [3s2p1d|7s4p1d]
    c       10     24     14   def2-SV(P)   [3s2p1d|7s4p1d]
    s        2     36     18   def2-SV(P)   [4s3p1d|10s7p1d]
    n        2     24     14   def2-SV(P)   [3s2p1d|7s4p1d]
    h        4      4      2   def2-SV(P)   [2s|4s]
    br       1     74     32   def2-SV(P)   [5s4p3d|14s10p6d]
   ---------------------------------------------------------------------------
   total:   21    498    272
   ---------------------------------------------------------------------------

   total number of primitive shells          :   88
   total number of contracted shells         :  120
   total number of cartesian basis functions :  291
   total number of SCF-basis functions       :  272


 integral neglect threshold       :  0.11E-10
 integral storage threshold THIZE :  0.10E-04
 integral storage threshold THIME :         5

 RI-J AUXILIARY BASIS SET information:

              we will work with the 1s 3p 5d 7f 9g ... basis set
              ...i.e. with spherical basis functions...

   type   atoms  prim   cont   basis
   ---------------------------------------------------------------------------
    o        2     70     49   def2-SV(P)   [6s4p3d1f1g|12s5p4d2f1g]
    c       10     70     49   def2-SV(P)   [6s4p3d1f1g|12s5p4d2f1g]
    s        2     77     51   def2-SV(P)   [8s4p3d1f1g|14s5p5d2f1g]
    n        2     70     49   def2-SV(P)   [6s4p3d1f1g|12s5p4d2f1g]
    h        4     16     11   def2-SV(P)   [3s1p1d|5s2p1d]
    br       1     89     58   def2-SV(P)   [8s4p3d2f1g|19s5p5d3f1g]
   ---------------------------------------------------------------------------
   total:   21   1287    890
   ---------------------------------------------------------------------------

   total number of primitive shells          :  140
   total number of contracted shells         :  282
   total number of cartesian basis functions : 1101
   total number of SCF-basis functions       :  890


 symmetry group of the molecule :   c1 

 the group has the following generators :
   c1(z)

    1 symmetry operations found

 there are 1 real representations :   a   

 maximum number of shells which are related by symmetry :  1


    mo occupation :
   irrep   mo's   occupied
    a      272       81
 
 number of basis functions   :                    272
 number of occupied orbitals :                     81
 
  
           ------------------
           density functional
           ------------------
 PBE0 hybrid functional
 exchange:    3/4 (LDA+PBE) + 1/4 HF
 correlation: LDA (PW) + PBE

 iterations will be done with small grid
  
 spherical integration : Lebedev's spherical grid
 spherical gridsize    :                     5
    i.e. gridpoints    :                   590
 value for diffuse not defined
 radial integration    : Chebyshev 2nd kind (scaling 3)
 radial gridsize       :                     8
 integration cells     :                    21
 partition function    : becke
 partition sharpness   :                     3
  

 biggest AO integral is expected to be    21.668154127
  
           ------------------------
               RI-J - INFORMATION
           ------------------------
 Contributions to RI integral batches: 
  neglected integral batches:                  2250
  direct contribution:                            0
  memory contribution:                  5010
 Memory core needed for (P|Q) and Cholesky      7 MByte
 Memory core minimum needed except of (P|Q)     1 MByte
 Total minimum memory core needed (sum)         7 MByte
  
 ****************************************
 Memory allocated for RI-J   250 MByte
 ****************************************
                                            

          ------------------------
          nuclear repulsion energy  :   1708.82855687    
          ------------------------


         -----------------
         -S,T+V- integrals
         -----------------

 1e-integrals will be neglected if expon. factor < 0.114844E-11
 
   Difference densities algorithm switched on.
   The maximal number of linear combinations of
   difference densities is                    20 .

 DIIS switched on: error vector is FDS-SDF
 Max. Iterations for DIIS is     :   4
 DIIS matrix (see manual) 
    Scaling factor of diagonals  :  1.200
    threshold for scaling factor :  0.000

 scf convergence criterion : increment of total energy < .1000000D-06
                  and increment of one-electron energy < .1000000D-03

  MOs are in ASCII format !


 automatic virtual orbital shift switched on 
      shift if e(lumo)-e(homo) < 0.10000000    


 reading orbital data $scfmo  from file mos
 orbital characterization : scfconv=7

 DSCF restart information will be dumped onto file mos


 Starting SCF iterations

          Overall gridpoints after grid construction =        122153

 ITERATION  ENERGY          1e-ENERGY        2e-ENERGY     RMS[dD(SAO)]   TOL
   1  -4011.7324643311    -8978.4575097     3257.8964885    0.000D+00 0.115D-10
                            Exc = -172.747716860     Coul =  3486.31197099    
                            exK = -55.6677656736    
                              N = 162.00004146    
                            current damping = 0.700
 
          max. resid. norm for Fia-block=  2.317D-06 for orbital      1a         
          max. resid. fock norm         =  4.682D-06 for orbital    197a         

 ITERATION  ENERGY          1e-ENERGY        2e-ENERGY     RMS[dD(SAO)]   TOL
   2  -4011.7324643296    -8978.4575060     3257.8964848    0.111D-06 0.726D-11
                            Exc = -172.747716462      Eck =  3430.64420130    
                              N = 162.00004146    
                            current damping = 0.700
 
          Norm of current diis error: 0.13659E-04
          max. resid. norm for Fia-block=  1.102D-06 for orbital     68a         
          max. resid. fock norm         =  2.050D-06 for orbital    197a         

 ENERGY & DENSITY CONVERGED !

          Overall gridpoints after grid construction =        372241

 ITERATION  ENERGY          1e-ENERGY        2e-ENERGY     RMS[dD(SAO)]   TOL
   3  -4011.7324575988    -8978.4575124     3257.8964979    0.603D-07 0.663D-11
                            Exc = -172.747709443      Eck =  3430.64420737    
                              N = 162.00000330    
                            current damping = 0.750
 
          Norm of current diis error: 0.49938E-05
          max. resid. norm for Fia-block=  6.316D-07 for orbital     68a         
          max. resid. fock norm         =  8.481D-07 for orbital    197a         

 End of SCF iterations

   convergence criteria satisfied after     3 iterations


                  ------------------------------------------ 
                 |  total energy      =  -4011.73245759881  |
                  ------------------------------------------ 
                 :  kinetic energy    =   4002.42298810663  :
                 :  potential energy  =  -8014.15544570544  :
                 :  virial theorem    =      1.99767943910  :
                 :  wavefunction norm =      1.00000000000  :
                  .......................................... 


 orbitals $scfmo  will be written to file mos

    irrep                 77a         78a         79a         80a         81a   
 eigenvalues H         -0.16698    -0.15677    -0.13534    -0.12600    -0.07710
            eV          -4.5437     -4.2659     -3.6829     -3.4286     -2.0980
 occupation              2.0000      2.0000      2.0000      2.0000      2.0000 

    irrep                 82a         83a         84a         85a         86a   
 eigenvalues H          0.02346     0.11079     0.11990     0.12681     0.13506
            eV           0.6385      3.0149      3.2627      3.4506      3.6753
 
 
 
 
 ==============================================================================
                           electrostatic moments
 ==============================================================================

 reference point for electrostatic moments:    0.00000   0.00000   0.00000

 
              nuc           elec       ->  total
 ------------------------------------------------------------------------------
                          charge      
 ------------------------------------------------------------------------------
         161.000000    -162.000000      -1.000000
 
 ------------------------------------------------------------------------------
                       dipole moment  
 ------------------------------------------------------------------------------
   x    -640.406837     645.064914       4.658077
   y     784.559451    -790.552345      -5.992895
   z       0.715560      -0.724113      -0.008553
 
   | dipole moment | =     7.5903 a.u. =    19.2926 debye 
 
 ------------------------------------------------------------------------------
                     quadrupole moment
 ------------------------------------------------------------------------------
  xx    7733.917522   -7907.333874    -173.416352
  yy    5894.124567   -6028.503107    -134.378540
  zz       5.714115     -98.486509     -92.772394
  xy   -4897.275349    4929.862454      32.587105
  xz      -6.381525       6.407702       0.026178
  yz      10.067128     -10.136853      -0.069724
 
     1/3  trace=    -133.522429
     anisotropy=      89.805400
 
 ==============================================================================
 


    ------------------------------------------------------------------------
         total  cpu-time :  19.54 seconds
         total wall-time :  19.54 seconds
    ------------------------------------------------------------------------

   ****  ridft : all done  ****


    2018-02-08 16:30:27.659 

fine, there is no data group "$actual step"
next step = egrad

 egrad (nile) : TURBOMOLE V7.2 ( 21454 ) 4 Oct 2017 at 12:24:43
 Copyright (C) 2017 TURBOMOLE GmbH, Karlsruhe


    2018-02-08 16:30:28.742 




                               e g r a d

                             TURBOMOLE GmbH


             integral direct evaluation of excited state
                     and polarizability gradients
                 and first-order nonadiabatic couplings



          references (see also programs escf, dscf and ridft) 

          review 
          F. Furche and D. Rappoport,  
          "Density functional methods for excited states: 
          equilibrium structure and electronic spectra",
          ch. III of "Computational Photochemistry", ed. by 
          M. Olivucci, vol. 16 of "Theoretical and Computational 
          Chemistry", Elsevier, Amsterdam, 2005.

          nonorthonormal Krylov space methods 
          F. Furche, B. T. Krull, B. D. Nguyen, J. Kwon, 
          J. Chem. Phys. 144 (2016), 174105.

          RI-J method 
          D. Rappoport and F. Furche, 
          J. Chem. Phys. 122 (2005), 064105.

          Lagrangian method, implementation, benchmarks 
          F. Furche and R. Ahlrichs,
          J. Chem. Phys. 117 (2002), 7433;
          J. Chem. Phys. 121 (2004), 12772 (E).

          Polarizability derivatives, Raman intensities 
          D. Rappoport and F. Furche, 
          J. Chem. Phys. 126 (2007), 201104.

          First-order nonadiabatic couplings 
          R. Send and F. Furche, 
          J. Chem. Phys. 132 (2010), 044107.
                                     




              +--------------------------------------------------+
              | Atomic coordinate, charge and isotop information |
              +--------------------------------------------------+

                    atomic coordinates            atom    charge  isotop
        -12.86871272    6.54900276    0.00652914    o      8.000     0
        -10.82297687    5.43394448    0.00289376    c      6.000     0
         -8.37339773    6.69472945    0.00865491    c      6.000     0
         -6.14212000    5.36176898    0.00494541    c      6.000     0
         -6.10465984    2.63854137   -0.00517653    c      6.000     0
         -8.45547573    1.32930428   -0.01158976    c      6.000     0
        -10.66360993    2.65843903   -0.00775436    c      6.000     0
         -3.04883871    6.46477488    0.01109665    s     16.000     0
         -1.99990584    3.28770023   -0.00024157    c      6.000     0
         -3.81330676    1.58056013   -0.00751086    n      7.000     0
          0.60946903    2.68632560   -0.00121938    c      6.000     0
          1.44125726   -0.58038206   -0.01278789    s     16.000     0
          2.43472654    4.34194238    0.00589154    n      7.000     0
          4.79551045    3.26693629    0.00377817    c      6.000     0
          4.71581387    0.34094062   -0.00691310    c      6.000     0
          5.70950423   -0.37808884    1.67777665    h      1.000     0
          5.71210951   -0.36584099   -1.69524410    h      1.000     0
          6.78956355    4.38666885    0.00935901    o      8.000     0
         -8.35015946   10.25892960    0.02149164    br    35.000     0
         -8.42605142   -0.73858123   -0.01947541    h      1.000     0
        -12.49414422    1.69446851   -0.01267993    h      1.000     0
 
       center of nuclear mass  :   -4.12780271    5.09258871    0.00515867
       center of nuclear charge:   -3.97768221    4.87304007    0.00444447

              +--------------------------------------------------+
              |               basis set information              |
              +--------------------------------------------------+

              we will work with the 1s 3p 5d 7f 9g ... basis set
              ...i.e. with spherical basis functions...

   type   atoms  prim   cont   basis
   ---------------------------------------------------------------------------
    o        2     24     14   def2-SV(P)   [3s2p1d|7s4p1d]
    c       10     24     14   def2-SV(P)   [3s2p1d|7s4p1d]
    s        2     36     18   def2-SV(P)   [4s3p1d|10s7p1d]
    n        2     24     14   def2-SV(P)   [3s2p1d|7s4p1d]
    h        4      4      2   def2-SV(P)   [2s|4s]
    br       1     74     32   def2-SV(P)   [5s4p3d|14s10p6d]
   ---------------------------------------------------------------------------
   total:   21    498    272
   ---------------------------------------------------------------------------

   total number of primitive shells          :   88
   total number of contracted shells         :  120
   total number of cartesian basis functions :  291
   total number of SCF-basis functions       :  272


 residuum convergence criterium   :  0.10E-04


 integral neglect threshold       :  0.11E-10
 integral storage threshold THIZE :  0.10E-04
 integral storage threshold THIME :         5

 
             FOUND RI-J FLAG !
 
  
 AUXILIARY BASIS SET information:

              we will work with the 1s 3p 5d 7f 9g ... basis set
              ...i.e. with spherical basis functions...

   type   atoms  prim   cont   basis
   ---------------------------------------------------------------------------
    o        2     70     49   def2-SV(P)   [6s4p3d1f1g|12s5p4d2f1g]
    c       10     70     49   def2-SV(P)   [6s4p3d1f1g|12s5p4d2f1g]
    s        2     77     51   def2-SV(P)   [8s4p3d1f1g|14s5p5d2f1g]
    n        2     70     49   def2-SV(P)   [6s4p3d1f1g|12s5p4d2f1g]
    h        4     16     11   def2-SV(P)   [3s1p1d|5s2p1d]
    br       1     89     58   def2-SV(P)   [8s4p3d2f1g|19s5p5d3f1g]
   ---------------------------------------------------------------------------
   total:   21   1287    890
   ---------------------------------------------------------------------------

   total number of primitive shells          :  140
   total number of contracted shells         :  282
   total number of cartesian basis functions : 1101
   total number of SCF-basis functions       :  890

 RPA SINGLET-EXCITATION-CALCULATION 
 
             FOUND DFT-FLAG !
 

 symmetry group of the molecule :   c1 

 the group has the following generators :
   c1(z)

    1 symmetry operations found

 there are 1 real representations :   a   

 maximum number of shells which are related by symmetry :  1

 IRREP of excited state :   a   
 

 determining totally symmetric integral contributions 
    - equivalent to irreducible tensor elements - 
 which can be formed within each triple of representations :

             representation triple      contributions

              a     a     a               1

    mo occupation :
   irrep   mo's   occupied
    a      272       81
 
 number of basis functions   :                    272
 number of occupied orbitals :                     81
 
  
           ------------------
           density functional
           ------------------
 PBE0 hybrid functional
 exchange:    3/4 (LDA+PBE) + 1/4 HF
 correlation: LDA (PW) + PBE

 iterations will be done with small grid
  
 spherical integration : Lebedev's spherical grid
 spherical gridsize    :                     5
    i.e. gridpoints    :                   590
 value for diffuse not defined
 radial integration    : Chebyshev 2nd kind (scaling 3)
 radial gridsize       :                     8
 integration cells     :                    21
 partition function    : becke
 partition sharpness   :                     3
  
  
           ----------------------
               RI - INFORMATION
           ----------------------

 biggest AO integral is expected to be    21.668154127

 Threshold for integral neglect (rithr2):   0.11E-10
 Threshold for integral neglect (rithr1):   0.11E-10

 Contributions to RI integral batches: 
  neglected integral batches:                  2101
  direct contribution:                            0
  memory contribution:                  5159
 Core memory available (ricore)            5000 MiB
 Core memory needed for (P|Q) and Cholesky 7 MiB
 Core memory used for integrals            250 MiB
  
 ****************************************
 Memory allocated for RIDFT 256 MiB
 ****************************************
                                            
  MOs are in ASCII format !


 reading orbital data $scfmo  from file mos
 orbital characterization : scfconv=7
 preparing numerical integration ....
          Overall gridpoints after grid construction =        122153

 Calculating ground state density on molecular grid

 Integral of ground state density: N =   162.0000414558806    



 number of non-frozen orbitals          :   272
 number of non-frozen occupied orbitals :    81



                        -------------------
                         excitation vector 
                        -------------------


 dimension of super-tensorspace: 2

          IRREP   tensor space dimension   number of roots

           a             15471                   3

 maximum number of Davidson iterations set to   25


 machine precision: 2.22D-16


 logfile sing_a    exists already

 found      3 converged vectors on sing_a   
 read       3 vectors from logfile sing_a   



                       Nonorthonormal Krylov Space Iteration


 total number of roots to be determined:   3


 maximum core memory set to  5000 MB,
 corresponding to     3796 vectors in CAO basis


 maximum number of simultaneously treated vectors (including degeneracy):        3


 Iteration IRREP Converged      Max. Euclidean
                 roots          residual norm

    1       a        3        5.515360731026434D-06
 

 converged!


 Switching to fine grid

 preparing numerical integration ....
          Overall gridpoints after grid construction =        372241

 Calculating ground state density on molecular grid

 Integral of ground state density: N =   162.0000032953563    



 Iteration IRREP Converged      Max. Euclidean
                 roots          residual norm

    2       a        2        1.009811271429240D-05
 

 NOTE: Residual norms are larger than 1.00D-05 due to mgrid option!

 Eigenpairs written on logfile sing_a   



 IRREP   Vector     Eigenvalue           Euclidean residual norm

  a         1    9.593722983906822D-02    1.009811271429240D-05
            2    1.123041206461249D-01    6.001108811653795D-06
            3    1.330416968077466D-01    8.697919466195835D-06
 




                    Selection rules for point group c1  


 Subduction with respect to c1  :

    Polar vector representation: a                           

    Axial vector representation: a                           

    Symmetric second rank tensor representation: a                           




                            Ground state


 Total energy:                           -4011.732457599000    

 Charge:

               elec          nuc         total

          -162.000000   161.000000    -1.000000


 Electric dipole moment:

               elec          nuc         total   

    x      645.064914  -640.406837     4.658077    Norm:              7.590293
    y     -790.552345   784.559451    -5.992895
    z       -0.724113     0.715560    -0.008553    Norm / debye:     19.292745


 Electric quadrupole moment:

               elec          nuc         total   

   xx    -7907.333874  7733.917522  -173.416352
   yy    -6028.503107  5894.124567  -134.378540    1/3*trace:      -133.522429
   zz      -98.486509     5.714115   -92.772394
   xy     4929.862454 -4897.275349    32.587105
   xz        6.407702    -6.381525     0.026178    Anisotropy:       89.805400
   yz      -10.136853    10.067128    -0.069724



 ==============================================================================

                              I R R E P   a   

 ==============================================================================


 Excitation is electric dipole allowed

 Excitation is magnetic dipole allowed

 Excitation is electric quadrupole allowed




                         1 singlet a excitation


 Total energy:                           -4011.636520369161    

 Excitation energy:                      0.9593722983906822E-01

 Excitation energy / eV:                  2.610585968603230    

 Excitation energy / nm:                  474.9287918405726    

 Excitation energy / cm^(-1):             21055.78808931052    


 Oscillator strength:

    velocity representation:             0.4776792988784791    

    length representation:               0.5504250583019922    

    mixed representation:                0.5127614294348090    


 Rotatory strength:

    velocity representation:            -0.1553445986984932E-06

    velocity rep. / 10^(-40)erg*cm^3:   -0.1003600927861873E-01

    length representation:              -0.3683560153428301E-07

    length rep. / 10^(-40)erg*cm^3:     -0.2379757274336135E-02


 Dominant contributions:

      occ. orbital   energy / eV   virt. orbital     energy / eV   |coeff.|^2*100
       81 a              -2.10          82 a               0.64       93.3
 

 Change of electron number:

             0.000000


 Electric transition dipole moment (velocity rep.):

    x        2.684791        Norm:                  2.732878
    y       -0.510411
    z       -0.000327        Norm / debye:          6.946336


 Electric transition dipole moment (length rep.):

    x        2.880324        Norm:                  2.933602
    y       -0.556554
    z       -0.000403        Norm / debye:          7.456528


 Magnetic transition dipole moment / i:

    x       -0.000001        Norm:                  0.001752
    y       -0.000004
    z       -0.001752        Norm / Bohr mag.:      0.480206


 Electric quadrupole transition moment:

   xx      -21.372330
   yy       -4.970019        1/3*trace:            -8.740345
   zz        0.121316
   xy       12.856484
   xz        0.003231        Anisotropy:           29.569154
   yz       -0.005275




                         2 singlet a excitation


 Total energy:                           -4011.620153478354    

 Excitation energy:                      0.1123041206461249    

 Excitation energy / eV:                  3.055951918425181    

 Excitation energy / nm:                  405.7139880340819    

 Excitation energy / cm^(-1):             24647.90540489651    


 Oscillator strength:

    velocity representation:             0.4799695502568683E-04

    length representation:               0.6134613214276976E-05

    mixed representation:                0.1715837087386994E-04


 Rotatory strength:

    velocity representation:            -0.2093755185305627E-06

    velocity rep. / 10^(-40)erg*cm^3:   -0.1352666693463040E-01

    length representation:              -0.1963196578413990E-06

    length rep. / 10^(-40)erg*cm^3:     -0.1268319545178140E-01


 Dominant contributions:

      occ. orbital   energy / eV   virt. orbital     energy / eV   |coeff.|^2*100
       80 a              -3.43          82 a               0.64       96.6
 

 Change of electron number:

            -0.000000


 Electric transition dipole moment (velocity rep.):

    x       -0.000139        Norm:                  0.025319
    y        0.000105
    z       -0.025319        Norm / debye:          0.064356


 Electric transition dipole moment (length rep.):

    x       -0.000145        Norm:                  0.009052
    y        0.000028
    z       -0.009051        Norm / debye:          0.023008


 Magnetic transition dipole moment / i:

    x        0.001357        Norm:                  0.001614
    y       -0.000875
    z       -0.000003        Norm / Bohr mag.:      0.442352


 Electric quadrupole transition moment:

   xx        0.000814
   yy       -0.000598        1/3*trace:             0.000323
   zz        0.000755
   xy       -0.000782
   xz        0.158929        Anisotropy:            0.287910
   yz        0.048693




                         3 singlet a excitation


 Total energy:                           -4011.599415902193    

 Excitation energy:                      0.1330416968077466    

 Excitation energy / eV:                  3.620250318964616    

 Excitation energy / nm:                  342.4742299088522    

 Excitation energy / cm^(-1):             29199.27727458155    


 Oscillator strength:

    velocity representation:             0.2956917260747594    

    length representation:               0.3256932260887589    

    mixed representation:                0.3103223552029565    


 Rotatory strength:

    velocity representation:             0.8461103327717617E-06

    velocity rep. / 10^(-40)erg*cm^3:    0.5466280270815076E-01

    length representation:               0.1027753555114381E-05

    length rep. / 10^(-40)erg*cm^3:      0.6639782973903534E-01


 Dominant contributions:

      occ. orbital   energy / eV   virt. orbital     energy / eV   |coeff.|^2*100
       79 a              -3.68          82 a               0.64       93.4
 

 Change of electron number:

            -0.000000


 Electric transition dipole moment (velocity rep.):

    x       -1.770270        Norm:                  1.825876
    y        0.447178
    z        0.000655        Norm / debye:          4.640949


 Electric transition dipole moment (length rep.):

    x       -1.854539        Norm:                  1.916267
    y        0.482459
    z        0.000738        Norm / debye:          4.870703


 Magnetic transition dipole moment / i:

    x        0.000002        Norm:                  0.000383
    y        0.000012
    z       -0.000382        Norm / Bohr mag.:      0.104837


 Electric quadrupole transition moment:

   xx       11.458189
   yy        3.286583        1/3*trace:             4.925814
   zz        0.032670
   xy       -7.778709
   xz       -0.001671        Anisotropy:           16.896088
   yz        0.002222
 

 Excited state no.    1 chosen for optimization


                       ----------------------
                        CPKS right-hand side 
                       ----------------------


          IRREP   tensor space dimension   number of roots

           a             15471                   1

                          ----------------
                           CPKS equations 
                          ----------------


 logfile dipl_a    will be constructed

 Switching to coarse grid

 preparing numerical integration ....
          Overall gridpoints after grid construction =        122153


                       Nonorthonormal Krylov Space Iteration


 total number of roots to be determined:   1


 maximum core memory set to  5000 MB,
 corresponding to     7544 vectors in CAO basis


 maximum number of simultaneously treated vectors (including degeneracy):        1


 Iteration IRREP Converged      Max. Euclidean
                 roots          residual norm

    1       a        0        9.369696221111781D-02
 
    2       a        0        4.431879765119227D-02
 
    3       a        0        1.863162001461270D-02
 
    4       a        0        7.560951323563807D-03
 
    5       a        0        2.778689848946084D-03
 
    6       a        0        9.859520933846605D-04
 
    7       a        0        3.882477881686559D-04
 
    8       a        0        1.315817580730963D-04
 
    9       a        0        6.498712136572597D-05
 
   10       a        0        1.491123265930375D-05
 
   11       a        1        6.140896219657801D-06
 

 converged!


 Switching to fine grid

 preparing numerical integration ....
          Overall gridpoints after grid construction =        372241

 Iteration IRREP Converged      Max. Euclidean
                 roots          residual norm

   12       a        0        1.440722943893400D-05
 

 NOTE: Residual norms are larger than 1.00D-05 due to mgrid option!

 Eigenpairs written on logfile dipl_a   



 IRREP   Vector     Frequency            Euclidean residual norm

  a         1    0.000000000000000D+00    1.440722943893400D-05
 

                          -------------------
                           relaxed densities 
                          -------------------


    ----------------------------------------
     S+T+V CONTRIBUTIONS TO ENERGY GRADIENT 
    ----------------------------------------

 1e-integral 1st. derivatives will be neglected if expon. factor < 0.100000E-10


    -----------------------------------------------
     TWO ELECTRON CONTRIBUTIONS TO ENERGY GRADIENT 
    -----------------------------------------------

 setting up bound for integral derivative estimation

 increment for numerical differentiation : 0.00050000

 biggest AO integral is expected to be    21.668154127
 biggest cartesian 1st derivative AO integral is expected to be    83.347447328

 biggest 1-particle AO density matrix element is expected to be    3.2084733574

 core memory to be involved in 2e-gradient :
   symmetry shell pair data              :         1
   two particle density+dens. estimates  :      8556
   derivative integrals                  :      8498
   derivative integral bound             :     21780
   totally                               :     30276


 setting up bound for integral derivative estimation

 increment for numerical differentiation : 0.00050000

 biggest AO integral is expected to be    21.668154127
 biggest cartesian 1st derivative AO integral is expected to be    83.347447328

 2e-integral 1st. derivatives will be neglected if expon. factor < 0.100000E-06
 outer boundary for 2e-integral derivative neglection is 0.161902E-08

 Integrated ground state density     :   162.0000032953565    


          ------------------------------------------------
           cartesian gradient of the energy (hartree/bohr)
          ------------------------------------------------

  ATOM      1 o           2 c           3 c           4 c           5 c 
dE/dx  0.1918300D-02  0.8984086D-02  0.1248824D-01 -0.2621858D-01  0.2870659D-01
dE/dy -0.9084429D-02  0.2239798D-01 -0.2385669D-01  0.3023281D-01 -0.1910627D-01
dE/dz -0.2478624D-04  0.8240303D-04 -0.7884047D-04  0.9306504D-04 -0.6081404D-04

  ATOM      6 c           7 c           8 s           9 c          10 n 
dE/dx -0.1322698D-01  0.1183758D-01  0.4200702D-03  0.1187968D-01 -0.2427689D-01
dE/dy -0.3884655D-02 -0.1306965D-01  0.5687833D-02  0.1490939D-02  0.8958000D-02
dE/dz -0.2426781D-04 -0.3514516D-04  0.3146462D-04  0.1209724D-04  0.3214414D-04

  ATOM     11 c          12 s          13 n          14 c          15 c 
dE/dx -0.7624442D-02  0.2976894D-02 -0.8268689D-02  0.1147862D-01  0.9210627D-03
dE/dy -0.3716837D-03 -0.2322440D-03 -0.1052084D-02  0.2845390D-03 -0.1328629D-02
dE/dz -0.9523152D-05 -0.4184989D-05 -0.2180667D-04  0.1669228D-04  0.3726544D-06

  ATOM     16 h          17 h          18 o          19 br         20 h 
dE/dx -0.6279586D-03 -0.6290258D-03 -0.1141362D-01  0.1119767D-02 -0.4644979D-03
dE/dy  0.7505936D-03  0.7454107D-03 -0.5021728D-02  0.7471975D-02 -0.2702824D-04
dE/dz -0.5308317D-03  0.5340745D-03 -0.2607420D-04  0.2334212D-04 -0.2930758D-06

  ATOM     21 h 
dE/dx  0.6311248D-05
dE/dy -0.9775423D-03
dE/dz -0.9487831D-05
 
 resulting FORCE  (fx,fy,fz) = (-.135D-04,0.745D-05,-.400D-06)
 resulting MOMENT (mx,my,mz) = (-.312D-05,0.245D-05,0.198D-04)


 **********************************************************************
  |maximum component of gradient| : 0.30232809E-01  (atom  4 c )       
   gradient norm                  : 0.77576359E-01
 **********************************************************************

 exx =      -0.238837 eyy =       0.077590 ezz =      -0.001795
 eyz =       0.000317 exz =       0.000011 exy =       0.039394

   ***  cartesian gradients written onto <gradient>  ***
 
 
 
 ==============================================================================
                           electrostatic moments
 ==============================================================================

 reference point for electrostatic moments:    0.00000   0.00000   0.00000

 
              nuc           gs,e       ->  gs,tot          excit     ->  total
 ------------------------------------------------------------------------------
                          charge      
 ------------------------------------------------------------------------------
         161.000000    -162.000000      -1.000000       0.000000      -1.000000
 
 ------------------------------------------------------------------------------
                       dipole moment  
 ------------------------------------------------------------------------------
   x    -640.406837     645.064914       4.658077      -0.988435       3.669643
   y     784.559451    -790.552345      -5.992895       1.056681      -4.936214
   z       0.715560      -0.724113      -0.008553       0.003338      -0.005215
 
   | dipole moment | =     6.1508 a.u. =    15.6338 debye 
 
 ------------------------------------------------------------------------------
                     quadrupole moment
 ------------------------------------------------------------------------------
  xx    7733.917522   -7907.333874    -173.416352       1.819286    -171.597066
  yy    5894.124567   -6028.503107    -134.378540      11.371736    -123.006804
  zz       5.714115     -98.486509     -92.772394       0.149317     -92.623077
  xy   -4897.275349    4929.862454      32.587105     -10.288346      22.298759
  xz      -6.381525       6.407702       0.026178      -0.026086       0.000092
  yz      10.067128     -10.136853      -0.069724       0.023567      -0.046157
 
     1/3  trace=    -129.075649
     anisotropy=      79.071158
 
 ==============================================================================
 


    ------------------------------------------------------------------------
         total  cpu-time :  3 minutes and 27 seconds
         total wall-time :  3 minutes and 29 seconds
    ------------------------------------------------------------------------

   ****  egrad : all done  ****


    2018-02-08 16:33:57.092 

fine, there is no data group "$actual step"
next step = relax

OPTIMIZATION CYCLE 1
Thu Feb  8 16:33:57 PST 2018

 statpt (nile) : TURBOMOLE V7.2 ( 21454 ) 2 Oct 2017 at 16:43:05
 Copyright (C) 2017 TURBOMOLE GmbH, Karlsruhe


    2018-02-08 16:33:57.127 



                           this is S T A T P T   


                     hessian and coordinate update for
                          stationary point search 

                     by barbara unterreiner, marek sierka,
                           and reinhart ahlrichs

                          quantum chemistry group
                          universitaet  karlsruhe
                                  germany




              +--------------------------------------------------+
              | Atomic coordinate, charge and isotop information |
              +--------------------------------------------------+

                    atomic coordinates            atom    charge  isotop
        -12.86871272    6.54900276    0.00652914    o      8.000     0
        -10.82297687    5.43394448    0.00289376    c      6.000     0
         -8.37339773    6.69472945    0.00865491    c      6.000     0
         -6.14212000    5.36176898    0.00494541    c      6.000     0
         -6.10465984    2.63854137   -0.00517653    c      6.000     0
         -8.45547573    1.32930428   -0.01158976    c      6.000     0
        -10.66360993    2.65843903   -0.00775436    c      6.000     0
         -3.04883871    6.46477488    0.01109665    s     16.000     0
         -1.99990584    3.28770023   -0.00024157    c      6.000     0
         -3.81330676    1.58056013   -0.00751086    n      7.000     0
          0.60946903    2.68632560   -0.00121938    c      6.000     0
          1.44125726   -0.58038206   -0.01278789    s     16.000     0
          2.43472654    4.34194238    0.00589154    n      7.000     0
          4.79551045    3.26693629    0.00377817    c      6.000     0
          4.71581387    0.34094062   -0.00691310    c      6.000     0
          5.70950423   -0.37808884    1.67777665    h      1.000     0
          5.71210951   -0.36584099   -1.69524410    h      1.000     0
          6.78956355    4.38666885    0.00935901    o      8.000     0
         -8.35015946   10.25892960    0.02149164    br    35.000     0
         -8.42605142   -0.73858123   -0.01947541    h      1.000     0
        -12.49414422    1.69446851   -0.01267993    h      1.000     0
 
       center of nuclear mass  :   -4.12780271    5.09258871    0.00515867
       center of nuclear charge:   -3.97768221    4.87304007    0.00444447
  Keyword $statpt not found - using default options
 
        ***************  Stationary point options ******************
        ************************************************************
           Maximum allowed trust radius:           3.000000E-01
           Minimum allowed trust radius:           1.000000E-03
           Initial trust radius:                   1.500000E-01
           GDIIS used if gradient norm <           1.000000E-02
           Number of previous steps for GDIIS:       5
           Hessian update method:                  BFGS
                        *** Convergence criteria ***                
           Threshold for energy change:            1.000000E-06
           Threshold for max displacement element: 1.000000E-03
           Threshold for max gradient element :    1.000000E-03
           Threshold for RMS of displacement:      5.000000E-04
           Threshold for RMS of gradient:          5.000000E-04
        ************************************************************
 

 keyword $statp missing in file <control>

  Keyword $statpt not found - using default options
     Number of symmetry restricted degrees of freedom:    63
     Constituted by:     3 translational degrees of freedom
                         3 rotational degrees of freedom
                      57 internal degrees of freedom

  *************************************************************************
   ATOM                      CARTESIAN COORDINATES
    1 o     -12.86871272191506      6.54900276075494      0.00652914286780
    2 c     -10.82297687119425      5.43394448218561      0.00289375859206
    3 c      -8.37339772755266      6.69472944692124      0.00865490939357
    4 c      -6.14211999854301      5.36176898488271      0.00494540826925
    5 c      -6.10465983615564      2.63854136657301     -0.00517652809752
    6 c      -8.45547572770091      1.32930428041644     -0.01158975545072
    7 c     -10.66360993356489      2.65843902540629     -0.00775436284880
    8 s      -3.04883870889446      6.46477487768542      0.01109664699209
    9 c      -1.99990583694377      3.28770022519975     -0.00024156558664
   10 n      -3.81330675529884      1.58056012668984     -0.00751085898168
   11 c       0.60946902718514      2.68632559583248     -0.00121937529224
   12 s       1.44125726330889     -0.58038206139353     -0.01278788723413
   13 n       2.43472653536156      4.34194237999209      0.00589153808066
   14 c       4.79551045153723      3.26693629305236      0.00377816773822
   15 c       4.71581386820364      0.34094062218576     -0.00691310223801
   16 h       5.70950423026303     -0.37808883522682      1.67777665075621
   17 h       5.71210950585588     -0.36584098835196     -1.69524410438225
   18 o       6.78956355419551      4.38666885375213      0.00935900894632
   19 br     -8.35015946110331     10.25892959767741      0.02149164097854
   20 h      -8.42605141507483     -0.73858122926060     -0.01947541093900
   21 h     -12.49414421798202      1.69446851238678     -0.01267992717767
  *************************************************************************
   ATOM                      CARTESIAN GRADIENTS  
    1 o       0.00191830020913     -0.00908442939394     -0.00002478624266
    2 c       0.00898408634391      0.02239798466242      0.00008240303340
    3 c       0.01248823581162     -0.02385668901390     -0.00007884046820
    4 c      -0.02621857573872      0.03023280927541      0.00009306503646
    5 c       0.02870659247315     -0.01910626999635     -0.00006081404412
    6 c      -0.01322698081981     -0.00388465543339     -0.00002426781256
    7 c       0.01183758042155     -0.01306965478960     -0.00003514516093
    8 s       0.00042007022540      0.00568783253645      0.00003146462079
    9 c       0.01187967694676      0.00149093938582      0.00001209723534
   10 n      -0.02427689328844      0.00895799983741      0.00003214413966
   11 c      -0.00762444238989     -0.00037168370378     -0.00000952315220
   12 s       0.00297689396490     -0.00023224395979     -0.00000418498861
   13 n      -0.00826868915028     -0.00105208409528     -0.00002180667307
   14 c       0.01147861599257      0.00028453897034      0.00001669228458
   15 c       0.00092106273860     -0.00132862852429      0.00000037265445
   16 h      -0.00062795860283      0.00075059363204     -0.00053083170843
   17 h      -0.00062902584119      0.00074541069269      0.00053407454578
   18 o      -0.01141362358272     -0.00502172836347     -0.00002607419532
   19 br      0.00111976679185      0.00747197483278      0.00002334212423
   20 h      -0.00046449792617     -0.00002702823547     -0.00000029307581
   21 h       0.00000631124785     -0.00097754233592     -0.00000948783094
  *************************************************************************

  norm of actual CARTESIAN gradient:  7.75764E-02
  norm of actual INTERNAL  gradient:  6.01833E-02

  ENERGY =   -4011.6365203692 a.u.; # of cycle =    1

  Approximate Hessian read from $hessapprox data section
  Number of zero Hessian eigenvalues:   0
  Final step radius: 1.16365E-01

  Transforming internal coordinate displacements to Cartesian space
      Iteration   1 residual norm     1.163655E-01
      Iteration   2 residual norm     5.425194E-03
      Iteration   3 residual norm     8.246901E-07
      Iteration   4 residual norm     3.292948E-13
      Transformation converged
      Residual norm:    3.292948E-13 after    4 iterations

      ****************************************************************** 
                          CONVERGENCE INFORMATION

                               Converged?     Value      Criterion
             Energy change         no    4011.6365204   0.0000010
             RMS of displacement   no       0.0154130   0.0005000
             RMS of gradient       no       0.0079715   0.0005000
             MAX displacement      no       0.0489018   0.0010000
             MAX gradient          no       0.0327199   0.0010000
      ****************************************************************** 


    ------------------------------------------------------------------------
         total  cpu-time :   0.03 seconds
         total wall-time :   0.03 seconds
    ------------------------------------------------------------------------

   ****  statpt : all done  ****


    2018-02-08 16:33:57.152 

fine, there is no data group "$actual step"
next step = ridft
 operating system is UNIX !

 ridft (nile) : TURBOMOLE V7.2 ( 21454 ) 4 Oct 2017 at 12:48:15
 Copyright (C) 2017 TURBOMOLE GmbH, Karlsruhe


    2018-02-08 16:33:57.175 



                                  r i d f t

                        DFT program with RI approximation 
                                for coulomb part 




                                                 
                                 References:     
                                                 
          TURBOMOLE:                             
              R. Ahlrichs, M. Baer, M. Haeser, H. Horn, and
              C. Koelmel
              Electronic structure calculations on workstation
              computers: the program system TURBOMOLE
              Chem. Phys. Lett. 162: 165 (1989)
          Density Functional:                              
              O. Treutler and R. Ahlrichs                      
              Efficient Molecular Numerical Integration Schemes
              J. Chem. Phys. 102: 346 (1995)                   
          Parallel Version:                                
              Performance of parallel TURBOMOLE for Density    
              Functional Calculations                          
              M. v. Arnim and R. Ahlrichs                      
              J. Comp. Chem. 19: 1746 (1998)                   
          RI-J Method:                                     
              Auxiliary Basis Sets to approximate Coulomb      
              Potentials                                       
              Chem. Phys. Lett. 240: 283 (1995)                
              K. Eichkorn, O. Treutler, H. Oehm, M. Haeser     
              and R. Ahlrichs                                  
              Chem. Phys. Lett. 242: 652 (1995)                
                                                           
              Auxiliary Basis Sets for Main Row Atoms and their
              Use to approximate Coulomb Potentials            
              K. Eichkorn, F. Weigend, O. Treutler and         
              R. Ahlrichs                                      
              Theo. Chem. Acc. 97: 119 (1997)                   
                                                           
              Accurate Coulomb-fitting basis sets for H to Rn 
              F. Weigend                                        
              Phys. Chem. Chem. Phys. 8: 1057 (2006)            
                                                           
          Multipole accelerated RI-J (MARI-J):             
              Fast evaluation of the Coulomb potential for     
              electron densities using multipole accelerated   
              resolution of identity approximation             
              M. Sierka, A. Hogekamp and R. Ahlrichs           
              J. Chem. Phys. 118: 9136 (2003)                  
          RI-JK Method:                                     
              A fully direct RI-HF algorithm: Implementation,
              optimised auxiliary basis sets, demonstration of
              accuracy and efficiency                         
              F. Weigend                                      
              Phys. Chem. Chem. Phys. 4: 4285 (2002)           
          Two-component HF and DFT with spin-orbit coupling:  
              Self-consistent treatment of spin-orbit         
              interactions with efficient Hartree-Fock and    
              density functional methods                      
              M. K. Armbruster, F. Weigend, C. van Wüllen and 
              W. Klopper                                      
              Phys. Chem. Chem. Phys. 10: 1748 (2008)         
          Relativistic all-electron 2c calculations           
              An efficient implementation of two-component    
              relativistic exact-decoupling methods for large 
              molecules                                       
              D. Peng, N. Middendorf, F. Weigend, M. Reiher   
              J. Chem. Phys. 138, 184105 (2013)               
                                         




              +--------------------------------------------------+
              |      general information about current run       |
              +--------------------------------------------------+

 

 DENSITY CONVERGENCE CHECK SWITCHED ON !
 SCF CONVERGENCE IF RMS(delta[D]) <     0.1000000000E-06

 PBE0 hybrid functional
 exchange:    3/4 (LDA+PBE) + 1/4 HF
 correlation: LDA (PW) + PBE
 A Hybrid-DFT calculation using the RI-J approximation will be carried out.
 Allocatable memory for RI due to $ricore (MB):                  5000


              +--------------------------------------------------+
              | Atomic coordinate, charge and isotop information |
              +--------------------------------------------------+

                    atomic coordinates            atom    charge  isotop
        -12.86663671    6.68485815   -0.07639212    o      8.000     0
        -10.87253326    5.48164314   -0.03585273    c      6.000     0
         -8.35904734    6.65854874    0.01481794    c      6.000     0
         -6.13289561    5.24560134    0.04752820    c      6.000     0
         -6.14850865    2.55296575    0.04385887    c      6.000     0
         -8.55090884    1.34717484    0.01470312    c      6.000     0
        -10.75848827    2.72157327   -0.03395944    c      6.000     0
         -3.05265551    6.34020039    0.05694384    s     16.000     0
         -2.00030276    3.18511167    0.03522209    c      6.000     0
         -3.81553474    1.46853037    0.03434729    n      7.000     0
          0.64655745    2.64068071    0.01675262    c      6.000     0
          1.53182470   -0.59984524   -0.00788693    s     16.000     0
          2.44157471    4.34676886    0.01503439    n      7.000     0
          4.82797555    3.33141554   -0.01187259    c      6.000     0
          4.79387185    0.39120562   -0.02953609    c      6.000     0
          5.81341880   -0.32686126    1.64996327    h      1.000     0
          5.78466171   -0.30613454   -1.73477776    h      1.000     0
          6.81207026    4.48220390   -0.02224163    o      8.000     0
         -8.26259852   10.20357622    0.03562022    br    35.000     0
         -8.58076942   -0.72399816    0.04251696    h      1.000     0
        -12.60648017    1.78686500   -0.08296553    h      1.000     0
 
       center of nuclear mass  :   -4.10102329    5.06719030    0.01263679
       center of nuclear charge:   -3.95337479    4.84956420    0.01138465

              +--------------------------------------------------+
              |               basis set information              |
              +--------------------------------------------------+

              we will work with the 1s 3p 5d 7f 9g ... basis set
              ...i.e. with spherical basis functions...

   type   atoms  prim   cont   basis
   ---------------------------------------------------------------------------
    o        2     24     14   def2-SV(P)   [3s2p1d|7s4p1d]
    c       10     24     14   def2-SV(P)   [3s2p1d|7s4p1d]
    s        2     36     18   def2-SV(P)   [4s3p1d|10s7p1d]
    n        2     24     14   def2-SV(P)   [3s2p1d|7s4p1d]
    h        4      4      2   def2-SV(P)   [2s|4s]
    br       1     74     32   def2-SV(P)   [5s4p3d|14s10p6d]
   ---------------------------------------------------------------------------
   total:   21    498    272
   ---------------------------------------------------------------------------

   total number of primitive shells          :   88
   total number of contracted shells         :  120
   total number of cartesian basis functions :  291
   total number of SCF-basis functions       :  272


 integral neglect threshold       :  0.11E-10
 integral storage threshold THIZE :  0.10E-04
 integral storage threshold THIME :         5

 RI-J AUXILIARY BASIS SET information:

              we will work with the 1s 3p 5d 7f 9g ... basis set
              ...i.e. with spherical basis functions...

   type   atoms  prim   cont   basis
   ---------------------------------------------------------------------------
    o        2     70     49   def2-SV(P)   [6s4p3d1f1g|12s5p4d2f1g]
    c       10     70     49   def2-SV(P)   [6s4p3d1f1g|12s5p4d2f1g]
    s        2     77     51   def2-SV(P)   [8s4p3d1f1g|14s5p5d2f1g]
    n        2     70     49   def2-SV(P)   [6s4p3d1f1g|12s5p4d2f1g]
    h        4     16     11   def2-SV(P)   [3s1p1d|5s2p1d]
    br       1     89     58   def2-SV(P)   [8s4p3d2f1g|19s5p5d3f1g]
   ---------------------------------------------------------------------------
   total:   21   1287    890
   ---------------------------------------------------------------------------

   total number of primitive shells          :  140
   total number of contracted shells         :  282
   total number of cartesian basis functions : 1101
   total number of SCF-basis functions       :  890


 symmetry group of the molecule :   c1 

 the group has the following generators :
   c1(z)

    1 symmetry operations found

 there are 1 real representations :   a   

 maximum number of shells which are related by symmetry :  1


    mo occupation :
   irrep   mo's   occupied
    a      272       81
 
 number of basis functions   :                    272
 number of occupied orbitals :                     81
 
  
           ------------------
           density functional
           ------------------
 PBE0 hybrid functional
 exchange:    3/4 (LDA+PBE) + 1/4 HF
 correlation: LDA (PW) + PBE

 iterations will be done with small grid
  
 spherical integration : Lebedev's spherical grid
 spherical gridsize    :                     5
    i.e. gridpoints    :                   590
 value for diffuse not defined
 radial integration    : Chebyshev 2nd kind (scaling 3)
 radial gridsize       :                     8
 integration cells     :                    21
 partition function    : becke
 partition sharpness   :                     3
  

 biggest AO integral is expected to be    21.668154127
  
           ------------------------
               RI-J - INFORMATION
           ------------------------
 Contributions to RI integral batches: 
  neglected integral batches:                  2263
  direct contribution:                            0
  memory contribution:                  4997
 Memory core needed for (P|Q) and Cholesky      7 MByte
 Memory core minimum needed except of (P|Q)     1 MByte
 Total minimum memory core needed (sum)         7 MByte
  
 ****************************************
 Memory allocated for RI-J   249 MByte
 ****************************************
                                            

          ------------------------
          nuclear repulsion energy  :   1707.76414317    
          ------------------------


         -----------------
         -S,T+V- integrals
         -----------------

 1e-integrals will be neglected if expon. factor < 0.114844E-11
 
   Difference densities algorithm switched on.
   The maximal number of linear combinations of
   difference densities is                    20 .

 DIIS switched on: error vector is FDS-SDF
 Max. Iterations for DIIS is     :   4
 DIIS matrix (see manual) 
    Scaling factor of diagonals  :  1.200
    threshold for scaling factor :  0.000

 scf convergence criterion : increment of total energy < .1000000D-06
                  and increment of one-electron energy < .1000000D-03

  MOs are in ASCII format !


 automatic virtual orbital shift switched on 
      shift if e(lumo)-e(homo) < 0.10000000    


 reading orbital data $scfmo  from file mos
 orbital characterization : scfconv=7

 DSCF restart information will be dumped onto file mos


 Starting SCF iterations

          Overall gridpoints after grid construction =        122184

 ITERATION  ENERGY          1e-ENERGY        2e-ENERGY     RMS[dD(SAO)]   TOL
   1  -4011.7245655151    -8976.4143199     3256.9256112    0.000D+00 0.115D-10
                            Exc = -172.720694997     Coul =  3485.30351499    
                            exK = -55.6572087972    
                              N = 162.00002902    
                            current damping = 0.700
 
          max. resid. norm for Fia-block=  3.432D-02 for orbital      1a         
          max. resid. fock norm         =  6.056D-02 for orbital      1a         

 ITERATION  ENERGY          1e-ENERGY        2e-ENERGY     RMS[dD(SAO)]   TOL
   2  -4011.7287015041    -8976.3323172     3256.8394725    0.597D-03 0.727D-11
                            Exc = -172.717495860      Eck =  3429.55696841    
                              N = 162.00002944    
                            current damping = 0.650
 
          Norm of current diis error: 0.74694E-01
          max. resid. norm for Fia-block=  1.413D-02 for orbital      1a         
          max. resid. fock norm         =  2.494D-02 for orbital      1a         

 ITERATION  ENERGY          1e-ENERGY        2e-ENERGY     RMS[dD(SAO)]   TOL
   3  -4011.7295273145    -8976.3841903     3256.8905198    0.331D-03 0.564D-11
                            Exc = -172.714906545      Eck =  3429.60542632    
                              N = 162.00002969    
                            current damping = 0.600
 
          Norm of current diis error: 0.39580E-01
          max. resid. norm for Fia-block=  5.563D-03 for orbital      1a         
          max. resid. fock norm         =  9.824D-03 for orbital      1a         

 ITERATION  ENERGY          1e-ENERGY        2e-ENERGY     RMS[dD(SAO)]   TOL
   4  -4011.7297226748    -8976.3092733     3256.8154075    0.240D-03 0.523D-11
                            Exc = -172.719134191      Eck =  3429.53454169    
                              N = 162.00002960    
                            current damping = 0.650
 
          Norm of current diis error: 0.25325E-01
          max. resid. norm for Fia-block=  2.088D-03 for orbital      1a         
          max. resid. fock norm         =  3.732D-03 for orbital    264a         

 ITERATION  ENERGY          1e-ENERGY        2e-ENERGY     RMS[dD(SAO)]   TOL
   5  -4011.7298333130    -8976.3475772     3256.8536007    0.113D-03 0.501D-11
                            Exc = -172.716854588      Eck =  3429.57045533    
                              N = 162.00002971    
                            current damping = 0.700
 
          Norm of current diis error: 0.74803E-02
          max. resid. norm for Fia-block=  8.225D-04 for orbital      1a         
          max. resid. fock norm         =  1.586D-03 for orbital    209a         
          mo-orthogonalization: Cholesky decomposition

 ITERATION  ENERGY          1e-ENERGY        2e-ENERGY     RMS[dD(SAO)]   TOL
   6  -4011.7298419475    -8976.3421087     3256.8481236    0.372D-04 0.488D-11
                            Exc = -172.716657112      Eck =  3429.56478067    
                              N = 162.00002970    
                            current damping = 0.750
 
          Norm of current diis error: 0.37895E-02
          max. resid. norm for Fia-block=  3.386D-04 for orbital      1a         
          max. resid. fock norm         =  5.976D-04 for orbital      1a         

 ITERATION  ENERGY          1e-ENERGY        2e-ENERGY     RMS[dD(SAO)]   TOL
   7  -4011.7298442293    -8976.3418942     3256.8479068    0.145D-04 0.478D-11
                            Exc = -172.716761030      Eck =  3429.56466784    
                              N = 162.00002972    
                            current damping = 0.600
 
          Norm of current diis error: 0.13409E-02
          max. resid. norm for Fia-block=  1.451D-04 for orbital      1a         
          max. resid. fock norm         =  2.561D-04 for orbital      1a         

 ITERATION  ENERGY          1e-ENERGY        2e-ENERGY     RMS[dD(SAO)]   TOL
   8  -4011.7298444429    -8976.3434954     3256.8495078    0.733D-05 0.470D-11
                            Exc = -172.716707367      Eck =  3429.56621520    
                              N = 162.00002971    
                            current damping = 0.650
 
          Norm of current diis error: 0.99527E-03
          max. resid. norm for Fia-block=  6.048D-05 for orbital     68a         
          max. resid. fock norm         =  1.279D-04 for orbital    243a         

 ITERATION  ENERGY          1e-ENERGY        2e-ENERGY     RMS[dD(SAO)]   TOL
   9  -4011.7298445960    -8976.3440671     3256.8500794    0.436D-05 0.461D-11
                            Exc = -172.716669813      Eck =  3429.56674920    
                              N = 162.00002972    
                            current damping = 0.500
 
          Norm of current diis error: 0.35668E-03
          max. resid. norm for Fia-block=  3.363D-05 for orbital     81a         
          max. resid. fock norm         =  4.560D-05 for orbital     64a         

 ITERATION  ENERGY          1e-ENERGY        2e-ENERGY     RMS[dD(SAO)]   TOL
  10  -4011.7298446087    -8976.3428070     3256.8488192    0.239D-05 0.453D-11
                            Exc = -172.716725369      Eck =  3429.56554458    
                              N = 162.00002971    
                            current damping = 0.550
 
          Norm of current diis error: 0.27681E-03
          max. resid. norm for Fia-block=  1.312D-05 for orbital     80a         
          max. resid. fock norm         =  2.940D-05 for orbital    251a         
          mo-orthogonalization: Cholesky decomposition

 ITERATION  ENERGY          1e-ENERGY        2e-ENERGY     RMS[dD(SAO)]   TOL
  11  -4011.7298446205    -8976.3432119     3256.8492241    0.119D-05 0.443D-11
                            Exc = -172.716710644      Eck =  3429.56593476    
                              N = 162.00002971    
                            current damping = 0.600
 
          Norm of current diis error: 0.84064E-04
          max. resid. norm for Fia-block=  7.398D-06 for orbital     68a         
          max. resid. fock norm         =  9.614D-06 for orbital     68a         

 ENERGY & DENSITY CONVERGED !

          Overall gridpoints after grid construction =        372357

 ITERATION  ENERGY          1e-ENERGY        2e-ENERGY     RMS[dD(SAO)]   TOL
  12  -4011.7298392081    -8976.3432993     3256.8493169    0.392D-06 0.437D-11
                            Exc = -172.716699431      Eck =  3429.56601634    
                              N = 162.00000003    
                            current damping = 0.450
 
          Norm of current diis error: 0.41909E-04
          max. resid. norm for Fia-block=  2.158D-06 for orbital     79a         
          max. resid. fock norm         =  4.185D-06 for orbital     55a         

 End of SCF iterations

   convergence criteria satisfied after    12 iterations


                  ------------------------------------------ 
                 |  total energy      =  -4011.72983920809  |
                  ------------------------------------------ 
                 :  kinetic energy    =   4002.24504177166  :
                 :  potential energy  =  -8013.97488097974  :
                 :  virial theorem    =      1.99763573376  :
                 :  wavefunction norm =      1.00000000000  :
                  .......................................... 


 orbitals $scfmo  will be written to file mos

    irrep                 77a         78a         79a         80a         81a   
 eigenvalues H         -0.16969    -0.16013    -0.13269    -0.12409    -0.07630
            eV          -4.6176     -4.3574     -3.6108     -3.3766     -2.0762
 occupation              2.0000      2.0000      2.0000      2.0000      2.0000 

    irrep                 82a         83a         84a         85a         86a   
 eigenvalues H          0.01949     0.10911     0.11862     0.13039     0.13218
            eV           0.5304      2.9692      3.2278      3.5481      3.5969
 
 
 
 
 ==============================================================================
                           electrostatic moments
 ==============================================================================

 reference point for electrostatic moments:    0.00000   0.00000   0.00000

 
              nuc           elec       ->  total
 ------------------------------------------------------------------------------
                          charge      
 ------------------------------------------------------------------------------
         161.000000    -162.000000      -1.000000
 
 ------------------------------------------------------------------------------
                       dipole moment  
 ------------------------------------------------------------------------------
   x    -636.493341     641.323659       4.830318
   y     780.779836    -786.849572      -6.069736
   z       1.832929      -1.821665       0.011265
 
   | dipole moment | =     7.7572 a.u. =    19.7168 debye 
 
 ------------------------------------------------------------------------------
                     quadrupole moment
 ------------------------------------------------------------------------------
  xx    7733.647955   -7907.752336    -174.104381
  yy    5838.435445   -5973.976650    -135.541204
  zz       5.955842     -98.804846     -92.849004
  xy   -4847.680748    4881.244778      33.564029
  xz      -8.931652       8.681661      -0.249991
  yz      16.090238     -15.972385       0.117853
 
     1/3  trace=    -134.164863
     anisotropy=      91.301428
 
 ==============================================================================
 


    ------------------------------------------------------------------------
         total  cpu-time :  1 minutes and 27 seconds
         total wall-time :  1 minutes and 27 seconds
    ------------------------------------------------------------------------

   ****  ridft : all done  ****


    2018-02-08 16:35:23.717 

fine, there is no data group "$actual step"
next step = egrad

 egrad (nile) : TURBOMOLE V7.2 ( 21454 ) 4 Oct 2017 at 12:24:43
 Copyright (C) 2017 TURBOMOLE GmbH, Karlsruhe


    2018-02-08 16:35:23.748 




                               e g r a d

                             TURBOMOLE GmbH


             integral direct evaluation of excited state
                     and polarizability gradients
                 and first-order nonadiabatic couplings



          references (see also programs escf, dscf and ridft) 

          review 
          F. Furche and D. Rappoport,  
          "Density functional methods for excited states: 
          equilibrium structure and electronic spectra",
          ch. III of "Computational Photochemistry", ed. by 
          M. Olivucci, vol. 16 of "Theoretical and Computational 
          Chemistry", Elsevier, Amsterdam, 2005.

          nonorthonormal Krylov space methods 
          F. Furche, B. T. Krull, B. D. Nguyen, J. Kwon, 
          J. Chem. Phys. 144 (2016), 174105.

          RI-J method 
          D. Rappoport and F. Furche, 
          J. Chem. Phys. 122 (2005), 064105.

          Lagrangian method, implementation, benchmarks 
          F. Furche and R. Ahlrichs,
          J. Chem. Phys. 117 (2002), 7433;
          J. Chem. Phys. 121 (2004), 12772 (E).

          Polarizability derivatives, Raman intensities 
          D. Rappoport and F. Furche, 
          J. Chem. Phys. 126 (2007), 201104.

          First-order nonadiabatic couplings 
          R. Send and F. Furche, 
          J. Chem. Phys. 132 (2010), 044107.
                                     




              +--------------------------------------------------+
              | Atomic coordinate, charge and isotop information |
              +--------------------------------------------------+

                    atomic coordinates            atom    charge  isotop
        -12.86663671    6.68485815   -0.07639212    o      8.000     0
        -10.87253326    5.48164314   -0.03585273    c      6.000     0
         -8.35904734    6.65854874    0.01481794    c      6.000     0
         -6.13289561    5.24560134    0.04752820    c      6.000     0
         -6.14850865    2.55296575    0.04385887    c      6.000     0
         -8.55090884    1.34717484    0.01470312    c      6.000     0
        -10.75848827    2.72157327   -0.03395944    c      6.000     0
         -3.05265551    6.34020039    0.05694384    s     16.000     0
         -2.00030276    3.18511167    0.03522209    c      6.000     0
         -3.81553474    1.46853037    0.03434729    n      7.000     0
          0.64655745    2.64068071    0.01675262    c      6.000     0
          1.53182470   -0.59984524   -0.00788693    s     16.000     0
          2.44157471    4.34676886    0.01503439    n      7.000     0
          4.82797555    3.33141554   -0.01187259    c      6.000     0
          4.79387185    0.39120562   -0.02953609    c      6.000     0
          5.81341880   -0.32686126    1.64996327    h      1.000     0
          5.78466171   -0.30613454   -1.73477776    h      1.000     0
          6.81207026    4.48220390   -0.02224163    o      8.000     0
         -8.26259852   10.20357622    0.03562022    br    35.000     0
         -8.58076942   -0.72399816    0.04251696    h      1.000     0
        -12.60648017    1.78686500   -0.08296553    h      1.000     0
 
       center of nuclear mass  :   -4.10102329    5.06719030    0.01263679
       center of nuclear charge:   -3.95337479    4.84956420    0.01138465

              +--------------------------------------------------+
              |               basis set information              |
              +--------------------------------------------------+

              we will work with the 1s 3p 5d 7f 9g ... basis set
              ...i.e. with spherical basis functions...

   type   atoms  prim   cont   basis
   ---------------------------------------------------------------------------
    o        2     24     14   def2-SV(P)   [3s2p1d|7s4p1d]
    c       10     24     14   def2-SV(P)   [3s2p1d|7s4p1d]
    s        2     36     18   def2-SV(P)   [4s3p1d|10s7p1d]
    n        2     24     14   def2-SV(P)   [3s2p1d|7s4p1d]
    h        4      4      2   def2-SV(P)   [2s|4s]
    br       1     74     32   def2-SV(P)   [5s4p3d|14s10p6d]
   ---------------------------------------------------------------------------
   total:   21    498    272
   ---------------------------------------------------------------------------

   total number of primitive shells          :   88
   total number of contracted shells         :  120
   total number of cartesian basis functions :  291
   total number of SCF-basis functions       :  272


 residuum convergence criterium   :  0.10E-04


 integral neglect threshold       :  0.11E-10
 integral storage threshold THIZE :  0.10E-04
 integral storage threshold THIME :         5

 
             FOUND RI-J FLAG !
 
  
 AUXILIARY BASIS SET information:

              we will work with the 1s 3p 5d 7f 9g ... basis set
              ...i.e. with spherical basis functions...

   type   atoms  prim   cont   basis
   ---------------------------------------------------------------------------
    o        2     70     49   def2-SV(P)   [6s4p3d1f1g|12s5p4d2f1g]
    c       10     70     49   def2-SV(P)   [6s4p3d1f1g|12s5p4d2f1g]
    s        2     77     51   def2-SV(P)   [8s4p3d1f1g|14s5p5d2f1g]
[...]

 maximum number of shells which are related by symmetry :  1

 IRREP of excited state :   a   
 

 determining totally symmetric integral contributions 
    - equivalent to irreducible tensor elements - 
 which can be formed within each triple of representations :

             representation triple      contributions

              a     a     a               1

    mo occupation :
   irrep   mo's   occupied
    a      272       81
 
 number of basis functions   :                    272
 number of occupied orbitals :                     81
 
  
           ------------------
           density functional
           ------------------
 PBE0 hybrid functional
 exchange:    3/4 (LDA+PBE) + 1/4 HF
 correlation: LDA (PW) + PBE

 iterations will be done with small grid
  
 spherical integration : Lebedev's spherical grid
 spherical gridsize    :                     5
    i.e. gridpoints    :                   590
 value for diffuse not defined
 radial integration    : Chebyshev 2nd kind (scaling 3)
 radial gridsize       :                     8
 integration cells     :                    21
 partition function    : becke
 partition sharpness   :                     3
  
  
           ----------------------
               RI - INFORMATION
           ----------------------

 biggest AO integral is expected to be    21.668154127

 Threshold for integral neglect (rithr2):   0.11E-10
 Threshold for integral neglect (rithr1):   0.11E-10

 Contributions to RI integral batches: 
  neglected integral batches:                  2115
  direct contribution:                            0
  memory contribution:                  5145
 Core memory available (ricore)            5000 MiB
 Core memory needed for (P|Q) and Cholesky 7 MiB
 Core memory used for integrals            250 MiB
  
 ****************************************
 Memory allocated for RIDFT 257 MiB
 ****************************************
                                            
  MOs are in ASCII format !


 reading orbital data $scfmo  from file mos
 orbital characterization : scfconv=7
 preparing numerical integration ....
          Overall gridpoints after grid construction =        122131

 Calculating ground state density on molecular grid

 Integral of ground state density: N =   162.0000041095372    



 number of non-frozen orbitals          :   272
 number of non-frozen occupied orbitals :    81



                        -------------------
                         excitation vector 
                        -------------------


 dimension of super-tensorspace: 2

          IRREP   tensor space dimension   number of roots

           a             15471                   3

 maximum number of Davidson iterations set to   25


 machine precision: 2.22D-16


 logfile sing_a    exists already

 found      3 converged vectors on sing_a   
 read       3 vectors from logfile sing_a   



                       Nonorthonormal Krylov Space Iteration


 total number of roots to be determined:   3


 maximum core memory set to  5000 MB,
 corresponding to     3796 vectors in CAO basis


 maximum number of simultaneously treated vectors (including degeneracy):        3


 Iteration IRREP Converged      Max. Euclidean
                 roots          residual norm

    1       a        0        6.665498252903017D-03
 
    2       a        0        9.123492859706234D-04
 
    3       a        0        2.534763777164775D-04
 
    4       a        0        8.841293445315007D-05
 
    5       a        0        2.027750424470416D-05
 
    6       a        3        6.753629074028854D-06
 

 converged!


 Switching to fine grid

 preparing numerical integration ....
          Overall gridpoints after grid construction =        372361

 Calculating ground state density on molecular grid

 Integral of ground state density: N =   161.9999977117643    



 Iteration IRREP Converged      Max. Euclidean
                 roots          residual norm

    7       a        3        9.398762070912556D-06
 

 converged!

 Eigenpairs written on logfile sing_a   



 IRREP   Vector     Eigenvalue           Euclidean residual norm

  a         1    8.332210568256539D-02    9.398762070912556D-06
            2    1.030740757371991D-01    5.748940799991045D-06
            3    1.232775670038139D-01    9.378328433134871D-06
 




                    Selection rules for point group c1  


 Subduction with respect to c1  :

    Polar vector representation: a                           

    Axial vector representation: a                           

    Symmetric second rank tensor representation: a                           




                            Ground state


 Total energy:                           -4011.725559086000    

 Charge:

               elec          nuc         total

          -162.000000   161.000000    -1.000000


 Electric dipole moment:

               elec          nuc         total   

    x      637.834560  -632.792028     5.042533    Norm:              7.954038
    y     -783.167296   777.015913    -6.151383
    z       -0.680172     0.672019    -0.008153    Norm / debye:     20.217300


 Electric quadrupole moment:

               elec          nuc         total   

   xx    -7847.540779  7672.976617  -174.564161
   yy    -5935.318688  5798.736384  -136.582304    1/3*trace:      -134.653748
   zz      -98.517962     5.703183   -92.814779
   xy     4836.699379 -4802.000677    34.698702
   xz        5.912013    -5.889208     0.022805    Anisotropy:       92.911813
   yz       -9.547399     9.478903    -0.068497



 ==============================================================================

                              I R R E P   a   

 ==============================================================================


 Excitation is electric dipole allowed

 Excitation is magnetic dipole allowed

 Excitation is electric quadrupole allowed




                         1 singlet a excitation


 Total energy:                           -4011.642236980317    

 Excitation energy:                      0.8332210568256539E-01

 Excitation energy / eV:                  2.267310827446895    

 Excitation energy / nm:                  546.8339078417438    

 Excitation energy / cm^(-1):             18287.08837382741    


 Oscillator strength:

    velocity representation:             0.3092282530871128    

    length representation:               0.3606469863096861    

    mixed representation:                0.3339436531672897    


 Rotatory strength:

    velocity representation:            -0.6849963493522141E-07

    velocity rep. / 10^(-40)erg*cm^3:   -0.4425406338885127E-02

    length representation:               0.3326606033417770E-07

    length rep. / 10^(-40)erg*cm^3:      0.2149147720448786E-02


 Dominant contributions:

      occ. orbital   energy / eV   virt. orbital     energy / eV   |coeff.|^2*100
       81 a              -2.01          82 a               0.47       91.7
 

 Change of electron number:

             0.000000


 Electric transition dipole moment (velocity rep.):

    x       -2.318599        Norm:                  2.359419
    y        0.436988
    z        0.000203        Norm / debye:          5.997091


 Electric transition dipole moment (length rep.):

    x       -2.501134        Norm:                  2.548042
    y        0.486673
    z        0.000268        Norm / debye:          6.476527


 Magnetic transition dipole moment / i:

    x        0.000001        Norm:                  0.001080
    y        0.000004
    z        0.001080        Norm / Bohr mag.:      0.295988


 Electric quadrupole transition moment:

   xx       18.757723
   yy        4.481098        1/3*trace:             7.709633
   zz       -0.109921
   xy      -11.296545
   xz       -0.002114        Anisotropy:           25.947632
   yz        0.004482




                         2 singlet a excitation


 Total energy:                           -4011.622485010263    

 Excitation energy:                      0.1030740757371991    

 Excitation energy / eV:                  2.804789509741510    

 Excitation energy / nm:                  442.0447366044760    

 Excitation energy / cm^(-1):             22622.14470716561    


 Oscillator strength:

    velocity representation:             0.5154120234155071E-04

    length representation:               0.3101421050103802E-05

    mixed representation:                0.1264274305302652E-04


 Rotatory strength:

    velocity representation:             0.9450209092759378E-07

    velocity rep. / 10^(-40)erg*cm^3:    0.6105290234383940E-02

    length representation:               0.9482875143897502E-07

    length rep. / 10^(-40)erg*cm^3:      0.6126394076748897E-02


 Dominant contributions:

      occ. orbital   energy / eV   virt. orbital     energy / eV   |coeff.|^2*100
       80 a              -3.26          82 a               0.47       97.3
 

 Change of electron number:

            -0.000000


 Electric transition dipole moment (velocity rep.):

    x        0.000082        Norm:                  0.027387
    y        0.000076
    z       -0.027387        Norm / debye:          0.069612


 Electric transition dipole moment (length rep.):

    x        0.000078        Norm:                  0.006718
    y        0.000012
    z       -0.006718        Norm / debye:          0.017076


 Magnetic transition dipole moment / i:

    x        0.001126        Norm:                  0.001467
    y       -0.000940
    z       -0.000003        Norm / Bohr mag.:      0.402071


 Electric quadrupole transition moment:

   xx       -0.000734
   yy       -0.000465        1/3*trace:            -0.000185
   zz        0.000644
   xy       -0.000211
   xz        0.147921        Anisotropy:            0.267828
   yz        0.045047




                         3 singlet a excitation


 Total energy:                           -4011.602281518996    

 Excitation energy:                      0.1232775670038139    

 Excitation energy / eV:                  3.354554714614501    

 Excitation energy / nm:                  369.5997071274969    

 Excitation energy / cm^(-1):             27056.29849175657    


 Oscillator strength:

    velocity representation:             0.3738108291947462    

    length representation:               0.4174896494016938    

    mixed representation:                0.3950361507391650    


 Rotatory strength:

    velocity representation:            -0.3156530684266228E-06

    velocity rep. / 10^(-40)erg*cm^3:   -0.2039270853377143E-01

    length representation:              -0.1646960631275435E-06

    length rep. / 10^(-40)erg*cm^3:     -0.1064015892118711E-01


 Dominant contributions:

      occ. orbital   energy / eV   virt. orbital     energy / eV   |coeff.|^2*100
       79 a              -3.50          82 a               0.47       91.7
 

 Change of electron number:

             0.000000


 Electric transition dipole moment (velocity rep.):

    x       -2.071490        Norm:                  2.132699
    y        0.507282
    z        0.000623        Norm / debye:          5.420821


 Electric transition dipole moment (length rep.):

    x       -2.185133        Norm:                  2.253858
    y        0.552329
    z        0.000715        Norm / debye:          5.728778


 Magnetic transition dipole moment / i:

    x        0.000003        Norm:                  0.000287
    y        0.000011
    z       -0.000287        Norm / Bohr mag.:      0.078599


 Electric quadrupole transition moment:

   xx       14.331460
   yy        3.822429        1/3*trace:             6.054051
   zz        0.008263
   xy       -9.435243
   xz       -0.001537        Anisotropy:           20.788031
   yz        0.002316
 

 Excited state no.    1 chosen for optimization


                       ----------------------
                        CPKS right-hand side 
                       ----------------------


          IRREP   tensor space dimension   number of roots

           a             15471                   1

                          ----------------
                           CPKS equations 
                          ----------------


 logfile dipl_a    exists already

 found      1 converged vectors on dipl_a   
 read       1 vectors from logfile dipl_a   


 Switching to coarse grid

 preparing numerical integration ....
          Overall gridpoints after grid construction =        122131


                       Nonorthonormal Krylov Space Iteration


 total number of roots to be determined:   1


 maximum core memory set to  5000 MB,
 corresponding to     7544 vectors in CAO basis


 maximum number of simultaneously treated vectors (including degeneracy):        1


 Iteration IRREP Converged      Max. Euclidean
                 roots          residual norm

    1       a        0        7.475694308172662D-03
 
    2       a        0        9.130646536402927D-04
 
    3       a        0        2.536962977844315D-04
 
    4       a        0        8.124529287579916D-05
 
    5       a        0        2.425077034898246D-05
 
    6       a        1        9.636081955725247D-06
 

 converged!


 Switching to fine grid

 preparing numerical integration ....
          Overall gridpoints after grid construction =        372361

 Iteration IRREP Converged      Max. Euclidean
                 roots          residual norm

    7       a        0        1.770763738154162D-05
 

 NOTE: Residual norms are larger than 1.00D-05 due to mgrid option!

 Eigenpairs written on logfile dipl_a   



 IRREP   Vector     Frequency            Euclidean residual norm

  a         1    0.000000000000000D+00    1.770763738154162D-05
 

                          -------------------
                           relaxed densities 
                          -------------------


    ----------------------------------------
     S+T+V CONTRIBUTIONS TO ENERGY GRADIENT 
    ----------------------------------------

 1e-integral 1st. derivatives will be neglected if expon. factor < 0.100000E-10


    -----------------------------------------------
     TWO ELECTRON CONTRIBUTIONS TO ENERGY GRADIENT 
    -----------------------------------------------

 setting up bound for integral derivative estimation

 increment for numerical differentiation : 0.00050000

 biggest AO integral is expected to be    21.668154127
 biggest cartesian 1st derivative AO integral is expected to be    83.347447328

 biggest 1-particle AO density matrix element is expected to be    3.2069759375

 core memory to be involved in 2e-gradient :
   symmetry shell pair data              :         1
   two particle density+dens. estimates  :      8556
   derivative integrals                  :      8498
   derivative integral bound             :     21780
   totally                               :     30276


 setting up bound for integral derivative estimation

 increment for numerical differentiation : 0.00050000

 biggest AO integral is expected to be    21.668154127
 biggest cartesian 1st derivative AO integral is expected to be    83.347447328

 2e-integral 1st. derivatives will be neglected if expon. factor < 0.100000E-06
 outer boundary for 2e-integral derivative neglection is 0.162053E-08

 Integrated ground state density     :   161.9999977117634    


          ------------------------------------------------
           cartesian gradient of the energy (hartree/bohr)
          ------------------------------------------------

  ATOM      1 o           2 c           3 c           4 c           5 c 
dE/dx -0.1944833D-06  0.1064324D-06  0.2822703D-06 -0.4558170D-05  0.6788596D-05
dE/dy -0.1191464D-04  0.1130006D-04  0.3329996D-05 -0.1136190D-04  0.3956685D-06
dE/dz -0.4453327D-05  0.8775098D-06 -0.6186752D-05  0.1983941D-04 -0.5452233D-05

  ATOM      6 c           7 c           8 s           9 c          10 n 
dE/dx  0.3509492D-05 -0.1251204D-04 -0.1094469D-05 -0.7176766D-05 -0.2928843D-06
dE/dy  0.1380836D-06  0.5013502D-05  0.1020168D-04 -0.9261556D-05  0.8201405D-06
dE/dz  0.8866215D-05 -0.6700409D-06 -0.5189126D-06 -0.1298978D-05 -0.6489203D-05

  ATOM     11 c          12 s          13 n          14 c          15 c 
dE/dx  0.5875874D-05 -0.2666076D-05 -0.2322277D-08  0.6613512D-05 -0.7293288D-05
dE/dy -0.7581411D-05 -0.2081841D-05  0.1223122D-04 -0.1183222D-04  0.5817938D-05
dE/dz -0.2234843D-05  0.8302734D-06  0.1561619D-04 -0.4714565D-05 -0.3221153D-05

  ATOM     16 h          17 h          18 o          19 br         20 h 
dE/dx  0.1445179D-05 -0.5621098D-06 -0.4144752D-06 -0.8197580D-06  0.1325743D-05
dE/dy -0.4445494D-05 -0.2317536D-05  0.2785664D-05 -0.2511549D-05 -0.3524351D-05
dE/dz  0.2107279D-05 -0.4322139D-05 -0.1137149D-05 -0.4620648D-05 -0.1570553D-05

  ATOM     21 h 
dE/dx -0.5094740D-06
dE/dy  0.8968166D-06
dE/dz -0.1326822D-05
 
 resulting FORCE  (fx,fy,fz) = (-.121D-04,-.139D-04,-.805D-07)
 resulting MOMENT (mx,my,mz) = (0.109D-04,-.150D-04,0.505D-04)


 **********************************************************************
  |maximum component of gradient| : 0.19839405E-04  (atom  4 c )       
   gradient norm                  : 0.49328603E-04
 **********************************************************************

 exx =       0.000108 eyy =      -0.000014 ezz =       0.000011
 eyz =       0.000002 exz =       0.000011 exy =      -0.000015

   ***  cartesian gradients written onto <gradient>  ***
 
 
 
 ==============================================================================
                           electrostatic moments
 ==============================================================================

 reference point for electrostatic moments:    0.00000   0.00000   0.00000

 
              nuc           gs,e       ->  gs,tot          excit     ->  total
 ------------------------------------------------------------------------------
                          charge      
 ------------------------------------------------------------------------------
         161.000000    -162.000000      -1.000000       0.000000      -1.000000
 
 ------------------------------------------------------------------------------
                       dipole moment  
 ------------------------------------------------------------------------------
   x    -632.792028     637.834560       5.042533      -1.247173       3.795360
   y     777.015913    -783.167296      -6.151383       1.270118      -4.881265
   z       0.672019      -0.680172      -0.008153       0.003818      -0.004335
 
   | dipole moment | =     6.1832 a.u. =    15.7160 debye 
 
 ------------------------------------------------------------------------------
                     quadrupole moment
 ------------------------------------------------------------------------------
  xx    7672.976617   -7847.540779    -174.564161       2.111989    -172.452173
  yy    5798.736384   -5935.318688    -136.582304      13.572847    -123.009457
  zz       5.703183     -98.517962     -92.814779       0.198959     -92.615820
  xy   -4802.000677    4836.699379      34.698702     -12.151261      22.547441
  xz      -5.889208       5.912013       0.022805      -0.028657      -0.005852
  yz       9.478903      -9.547399      -0.068497       0.027058      -0.041439
 
     1/3  trace=    -129.359150
     anisotropy=      79.976657
 
 ==============================================================================
 


    ------------------------------------------------------------------------
         total  cpu-time :  4 minutes and 26 seconds
         total wall-time :  4 minutes and 26 seconds
    ------------------------------------------------------------------------

   ****  egrad : all done  ****


    2018-02-08 18:09:37.324 

fine, there is no data group "$actual step"
next step = relax
 energy change  : actual value =   0.2165E-06 threshold =   0.1000E-05
 geom. gradient : actual value =   0.3580E-04 threshold =   0.1000E-02

CONVERGENCY CRITERIA FULFILLED IN CYCLE 13

