[Molden Format]
[Title]
                                                                                
[Atoms] AU
 cl    1   17 0.37902040049140E+01 -.10378921241567E+01 0.14748838334078E+02
 o     2    8 0.17372661535130E+02 0.61006596931101E+01 -.11228502272197E+02
 o     3    8 -.28844168983595E+01 -.18135990278508E+02 -.65537973225565E+01
 o     4    8 -.21704601034785E+02 0.14101379476707E+02 -.11224990779961E+02
 h     5    1 0.16382852923582E+02 0.64377419154863E+01 -.12813531731612E+02
 h     6    1 -.23307700724510E+02 0.14968403067072E+02 -.99726218299213E+01
 h     7    1 -.46134809057652E+01 -.18198374082207E+02 -.61501209144010E+01
 h     8    1 -.22355111552911E+02 0.12237802286872E+02 -.10912922410585E+02
 h     9    1 -.26393468674641E+01 -.19762305559922E+02 -.73684865022802E+01
 h    10    1 0.17888146445491E+02 0.77169310505852E+01 -.10703750058880E+02
[GEOCONV]
energy
-.68814780549960E+03
-.68814212205680E+03
-.68819473571910E+03
-.68826809341530E+03
-.68833389609910E+03
-.68839033862920E+03
-.68844563778160E+03
-.68850614931940E+03
-.68857217010000E+03
-.68863425048210E+03
-.68867186732550E+03
-.68868295204780E+03
-.68871996783310E+03
-.68875447056680E+03
-.68876170051570E+03
-.68876118808970E+03
-.68876729266490E+03
-.68878374271950E+03
-.68880466622140E+03
-.68881457671460E+03
-.68879719264380E+03
-.68879499182790E+03
-.68881537395740E+03
-.68880766271340E+03
-.68879054731970E+03
-.68878121382520E+03
-.68878451028760E+03
-.68879800355040E+03
-.68880807271270E+03
-.68879321034750E+03
-.68878272529860E+03
-.68879629327680E+03
-.68878749434430E+03
-.68876707510070E+03
-.68875198217800E+03
-.68874912986490E+03
-.68875895074610E+03
-.68877304745090E+03
-.68877111320520E+03
-.68874831675190E+03
-.68875904190740E+03
-.68876617393360E+03
-.68874933638060E+03
-.68873163733610E+03
-.68872568412460E+03
-.68873397651720E+03
-.68875003939260E+03
-.68875748935580E+03
-.68874445275700E+03
-.68875067414770E+03
-.68876470498770E+03
-.68875429297830E+03
-.68873751225590E+03
-.68872841768120E+03
-.68873027360880E+03
-.68874047259070E+03
-.68875416380350E+03
-.68875901839900E+03
-.68874407014130E+03
-.68875005073320E+03
-.68876152410040E+03
-.68875035827330E+03
-.68873518622560E+03
-.68872725785330E+03
-.68872871059000E+03
-.68874002199970E+03
-.68875475122570E+03
-.68875263874640E+03
-.68873828787590E+03
-.68875141833990E+03
-.68875208911370E+03
-.68873711042100E+03
-.68872310178670E+03
-.68871792855190E+03
-.68872478364470E+03
-.68873962109910E+03
-.68875105304440E+03
-.68873943781590E+03
-.68872394310230E+03
-.68874828350690E+03
-.68875079710110E+03
-.68873577892890E+03
-.68872457677010E+03
-.68872523738640E+03
-.68873576398870E+03
-.68874951737820E+03
-.68874888940600E+03
-.68872585684830E+03
-.68874234852480E+03
-.68875279564790E+03
-.68873851442500E+03
-.68872495307860E+03
-.68872199295510E+03
-.68872846782470E+03
-.68874217335990E+03
-.68875343413660E+03
-.68873827121460E+03
-.68872597661360E+03
-.68875207678640E+03
-.68874976859250E+03
-.68873430316070E+03
-.68872442912760E+03
-.68872451160540E+03
-.68873549620320E+03
-.68875089598150E+03
-.68874650241360E+03
-.68872400651580E+03
-.68874791790080E+03
-.68875216394740E+03
-.68873746305960E+03
-.68872516151730E+03
-.68872148003700E+03
-.68872954031890E+03
-.68874678563720E+03
-.68875747293370E+03
-.68874016343310E+03
-.68873813243120E+03
-.68875525610750E+03
-.68874805921130E+03
-.68873166753570E+03
-.68872044267460E+03
-.68872118971210E+03
-.68873432401510E+03
-.68875147171570E+03
-.68874928943260E+03
-.68872852470360E+03
-.68874571324030E+03
-.68875082151050E+03
-.68873646411320E+03
-.68872141530430E+03
-.68871626134670E+03
-.68872454806250E+03
-.68874277321850E+03
-.68875591682900E+03
-.68874428251590E+03
-.68873622008940E+03
-.68874985497740E+03
-.68874556964150E+03
-.68872922225990E+03
-.68871705316500E+03
-.68871689116000E+03
-.68872920938020E+03
-.68874670508860E+03
-.68875165099260E+03
-.68873368471670E+03
-.68874156655620E+03
-.68875415963020E+03
-.68874192439410E+03
-.68872480500850E+03
-.68871665394320E+03
-.68872117906210E+03
-.68873607306690E+03
-.68875082041970E+03
-.68874412617060E+03
-.68872728855590E+03
-.68874031988110E+03
-.68874307526850E+03
-.68872948410040E+03
-.68871732688730E+03
-.68871606600120E+03
-.68872787302140E+03
-.68874605465840E+03
-.68874965016250E+03
-.68872714662740E+03
-.68873566177500E+03
-.68875131365800E+03
-.68873968551920E+03
-.68872293493040E+03
-.68871620978420E+03
-.68872452328720E+03
-.68874239195650E+03
-.68875109766270E+03
-.68873458507520E+03
-.68873259399880E+03
-.68875008968480E+03
-.68874408650110E+03
-.68872780848840E+03
max-force
0.80867500000000E+00
0.83007100000000E+00
0.76324000000000E+00
0.66899600000000E+00
0.58914100000000E+00
0.52646300000000E+00
0.47322500000000E+00
0.42208100000000E+00
0.36604800000000E+00
0.29999000000000E+00
0.26530400000000E+00
0.35064600000000E+00
0.25515000000000E+00
0.14380800000000E+00
0.16976400000000E+00
0.19143000000000E+00
0.19109400000000E+00
0.16857200000000E+00
0.12334400000000E+00
0.89652000000000E-01
0.27917000000000E+00
0.31465500000000E+00
0.10959800000000E+00
0.12048900000000E+00
0.15604400000000E+00
0.16583300000000E+00
0.16239000000000E+00
0.13215900000000E+00
0.59552000000000E-01
0.21876100000000E+00
0.27843100000000E+00
0.90494000000000E-01
0.12014400000000E+00
0.17211100000000E+00
0.19075400000000E+00
0.18973100000000E+00
0.16252900000000E+00
0.91736000000000E-01
0.11151900000000E+00
0.31990400000000E+00
0.20982500000000E+00
0.70630000000000E-01
0.13239700000000E+00
0.16174000000000E+00
0.16853100000000E+00
0.15330000000000E+00
0.11446500000000E+00
0.10459600000000E+00
0.25857300000000E+00
0.21721300000000E+00
0.57416000000000E-01
0.13347900000000E+00
0.17469500000000E+00
0.18331200000000E+00
0.17530600000000E+00
0.16421300000000E+00
0.13355200000000E+00
0.91275000000000E-01
0.25128300000000E+00
0.21050500000000E+00
0.81959000000000E-01
0.13289700000000E+00
0.15376900000000E+00
0.15665300000000E+00
0.16526800000000E+00
0.16001000000000E+00
0.10326700000000E+00
0.13482600000000E+00
0.27157700000000E+00
0.12939400000000E+00
0.10679100000000E+00
0.15962500000000E+00
0.18247700000000E+00
0.19329700000000E+00
0.17981100000000E+00
0.14679000000000E+00
0.89784000000000E-01
0.20254200000000E+00
0.34291900000000E+00
0.13989900000000E+00
0.10297600000000E+00
0.15511300000000E+00
0.17247300000000E+00
0.16282300000000E+00
0.14479000000000E+00
0.10295700000000E+00
0.13167700000000E+00
0.35408200000000E+00
0.21064300000000E+00
0.80866000000000E-01
0.15783900000000E+00
0.17988200000000E+00
0.17232500000000E+00
0.16805800000000E+00
0.15030800000000E+00
0.89642000000000E-01
0.24649900000000E+00
0.35519000000000E+00
0.11181800000000E+00
0.11354200000000E+00
0.15395700000000E+00
0.16056600000000E+00
0.16381400000000E+00
0.15073500000000E+00
0.94157000000000E-01
0.18790000000000E+00
0.39568400000000E+00
0.17478000000000E+00
0.10964000000000E+00
0.15266000000000E+00
0.16112500000000E+00
0.17129400000000E+00
0.16908100000000E+00
0.13422500000000E+00
0.76615000000000E-01
0.26500300000000E+00
0.26587800000000E+00
0.76722000000000E-01
0.12231000000000E+00
0.16130900000000E+00
0.17826100000000E+00
0.17660000000000E+00
0.15410100000000E+00
0.91793000000000E-01
0.16059000000000E+00
0.34317100000000E+00
0.17565000000000E+00
0.11637200000000E+00
0.14840700000000E+00
0.16481400000000E+00
0.17037100000000E+00
0.16329300000000E+00
0.12963800000000E+00
0.69301000000000E-01
0.19664400000000E+00
0.23930200000000E+00
0.94313000000000E-01
0.12671200000000E+00
0.17720500000000E+00
0.19520800000000E+00
0.19275300000000E+00
0.17050700000000E+00
0.12094100000000E+00
0.10133800000000E+00
0.27952200000000E+00
0.21390600000000E+00
0.70489000000000E-01
0.12866700000000E+00
0.16097000000000E+00
0.17159300000000E+00
0.17283000000000E+00
0.15802600000000E+00
0.95780000000000E-01
0.14678700000000E+00
0.27009800000000E+00
0.13792700000000E+00
0.11697100000000E+00
0.17623900000000E+00
0.19939600000000E+00
0.20134800000000E+00
0.17850300000000E+00
0.10712800000000E+00
0.90076000000000E-01
0.31805800000000E+00
0.25376600000000E+00
0.66848000000000E-01
0.11699600000000E+00
0.15552300000000E+00
0.17296300000000E+00
0.16281000000000E+00
0.11043300000000E+00
0.69358000000000E-01
0.24478500000000E+00
0.25350500000000E+00
0.66128000000000E-01
0.12446600000000E+00
0.18182800000000E+00
[GEOMETRIES] XYZ
    10

 cl 0.10628686906725E-01 0.10847102689011E+00 0.52148676414728E+00
 o  0.15191986928364E+01 0.57307102871628E+00 -.59928324025806E+00
 o  -.27734131422518E+00 -.17231389803093E+01 -.27799323899518E+00
 o  -.12661013181116E+01 0.92098103008379E+00 -.28191323901059E+00
 h  0.68366868955220E+00 0.95153103020387E+00 -.81652324111194E+00
 h  -.82215131636662E+00 0.93533103014020E+00 0.62734676456337E+00
 h  0.39778868842851E+00 -.10641889777192E+01 -.56065324010621E+00
 h  -.14135113186910E+01 -.16628973601609E-01 -.30717323910988E+00
 h  -.18600131386615E+00 -.15715289797133E+01 0.71426676490502E+00
 h  0.13511886921760E+01 0.58654102876923E+00 0.40034676367112E+00
    10

 cl 0.10064363365232E-01 0.10836141854501E+00 0.51899470942338E+00
 o  0.15228947652158E+01 0.57488835735214E+00 -.59745942909769E+00
 o  -.27838061444455E+00 -.17251816839602E+01 -.27501912478826E+00
 o  -.12640964108107E+01 0.91934476318924E+00 -.27811080545390E+00
 h  0.67162339204513E+00 0.96121911614607E+00 -.79667618896118E+00
 h  -.84418564003940E+00 0.91630590347158E+00 0.61956808726483E+00
 h  0.41586833848415E+00 -.10950582051010E+01 -.60111343607825E+00
 h  -.14393745000431E+01 0.19721954113573E-01 -.31503242355109E+00
 h  -.19371716206611E+00 -.15410591392920E+01 0.72395573425752E+00
 h  0.13466221211888E+01 0.59333139018724E+00 0.37804845047190E+00
    10

 cl 0.12717946150878E-01 0.10567402308992E+00 0.52266466351944E+00
 o  0.15320131431668E+01 0.57847711721683E+00 -.60013665345288E+00
 o  -.27981142315448E+00 -.17317180903330E+01 -.27368489891303E+00
 o  -.12716594430671E+01 0.92443725538296E+00 -.28179187150744E+00
 h  0.66544274309750E+00 0.97859205445756E+00 -.79158800209651E+00
 h  -.91834030855614E+00 0.95783041933908E+00 0.65046926967745E+00
 h  0.43038480421524E+00 -.11427182247931E+01 -.64363682694277E+00
 h  -.14864199216793E+01 0.36870878010875E-01 -.33503979342500E+00
 h  -.19970186099533E+00 -.15195530678902E+01 0.71809274107103E+00
 h  0.13701616468136E+01 0.60388628996996E+00 0.36106166351598E+00
    10

 cl 0.17883592350570E-01 0.10111030321549E+00 0.53234235576274E+00
 o  0.15460246388428E+01 0.58398624429081E+00 -.60755096668326E+00
 o  -.28162085587178E+00 -.17426846578648E+01 -.27419113637724E+00
 o  -.12881103690650E+01 0.93630112102484E+00 -.29221176199132E+00
 h  0.67116725223964E+00 0.10000174934824E+01 -.79888720004243E+00
 h  -.10272598937937E+01 0.10349275314672E+01 0.70674281895803E+00
 h  0.43951892724917E+00 -.12053456058740E+01 -.68425369174517E+00
 h  -.15519278214699E+01 0.33583163165723E-01 -.36433693616870E+00
 h  -.20290172569508E+00 -.15070941307681E+01 0.69791896381995E+00
 h  0.14186723676425E+01 0.61758188832293E+00 0.35280662800934E+00
    10

 cl 0.24817463408772E-01 0.95459338887505E-01 0.54770151761920E+00
 o  0.15643665663653E+01 0.59146374618397E+00 -.61960097444763E+00
 o  -.28391939131717E+00 -.17580947500020E+01 -.27683764436464E+00
 o  -.13125170028009E+01 0.95378106220247E+00 -.30784944455535E+00
 h  0.69251014578368E+00 0.10220452148958E+01 -.81469589607325E+00
 h  -.11551012951612E+01 0.11222283125466E+01 0.76349335058798E+00
 h  0.44338599714990E+00 -.12790142028485E+01 -.72042070134349E+00
 h  -.16282663359630E+01 0.25235372506551E-01 -.39767795332474E+00
 h  -.20260894035793E+00 -.15030512793808E+01 0.66799319436797E+00
 h  0.14861698076954E+01 0.63334188434680E+00 0.35242452674022E+00
    10

 cl 0.33034388006900E-01 0.89295345521028E-01 0.56826350859077E+00
 o  0.15865930890267E+01 0.60083851489040E+00 -.63578485198145E+00
 o  -.28692496421198E+00 -.17780251902037E+01 -.28195562884874E+00
 o  -.13440593712020E+01 0.97552927033126E+00 -.32710452087218E+00
 h  0.72976167434599E+00 0.10423959333496E+01 -.83479184082518E+00
 h  -.12915171402484E+01 0.12033877545423E+01 0.79824251311731E+00
 h  0.44395679674760E+00 -.13587142893548E+01 -.75138039288158E+00
 h  -.17068206324890E+01 0.28651595740866E-01 -.43000155483272E+00
 h  -.19838801520579E+00 -.15059140765055E+01 0.63533081364374E+00
 h  0.15655982155879E+01 0.65001319219675E+00 0.35407608767486E+00
    10

 cl 0.42235100808014E-01 0.82995245082772E-01 0.59345749689672E+00
 o  0.16124988642879E+01 0.61191552884567E+00 -.65533364003501E+00
 o  -.29092080872671E+00 -.18025562300587E+01 -.28981872434278E+00
 o  -.13819968937872E+01 0.10005240384714E+01 -.34866397456316E+00
 h  0.77945738357523E+00 0.10606372160010E+01 -.85562057526567E+00
 h  -.14296424494619E+01 0.12700589818035E+01 0.79709344900778E+00
 h  0.44440445638860E+00 -.14395610516136E+01 -.77788874107849E+00
 h  -.17809480895760E+01 0.53671679168063E-01 -.45779571788117E+00
 h  -.18982343795342E+00 -.15133130063154E+01 0.60752953847640E+00
 h  0.16498777317359E+01 0.66662164361784E+00 0.34910941585244E+00
    10

 cl 0.52200926598764E-01 0.76804690649766E-01 0.62268448726404E+00
 o  0.16421451986728E+01 0.62436718166911E+00 -.67743612280071E+00
 o  -.29615763303851E+00 -.18316507547015E+01 -.30049232549895E+00
 o  -.14255861750292E+01 0.10281163596575E+01 -.37147188468914E+00
 h  0.83449361604988E+00 0.10785149536022E+01 -.87494531328106E+00
 h  -.15645272963118E+01 0.13186824169478E+01 0.75279483535709E+00
 h  0.44775452420655E+00 -.15179014241180E+01 -.80126532605015E+00
 h  -.18466399359740E+01 0.10288274375585E+00 -.47918319120861E+00
 h  -.17652488612671E+00 -.15228231382254E+01 0.58933600385183E+00
 h  0.17326722136642E+01 0.68256317744878E+00 0.32973200168085E+00
    10

 cl 0.62738768699410E-01 0.70886649708632E-01 0.65535402949721E+00
 o  0.16757225635875E+01 0.63777042140038E+00 -.70143324528341E+00
 o  -.30271790515647E+00 -.18650359104016E+01 -.31371573292759E+00
 o  -.14740408995784E+01 0.10580107704668E+01 -.39467947165272E+00
 h  0.88578093028533E+00 0.10993138461807E+01 -.89182878935830E+00
 h  -.16920683952207E+01 0.13484924362745E+01 0.66281791623878E+00
 h  0.45529902090021E+00 -.15919161063380E+01 -.82217238005609E+00
 h  -.19027876218306E+01 0.17232500113505E+00 -.49395815252808E+00
 h  -.15856229706079E+00 -.15332686252104E+01 0.57960674420117E+00
 h  0.18091562665278E+01 0.69764693743852E+00 0.29183603999765E+00
    10

 cl 0.73672882398819E-01 0.65347709664786E-01 0.69090794859294E+00
 o  0.17132306093986E+01 0.65174831649795E+00 -.72700021211327E+00
 o  -.31044124101376E+00 -.19021969936408E+01 -.32898065750212E+00
 o  -.15264476257781E+01 0.10902655308596E+01 -.41777784334061E+00
 h  0.92647308472106E+00 0.11255499926655E+01 -.90575005285030E+00
 h  -.18088739435486E+01 0.13615524173134E+01 0.53118885493612E+00
 h  0.46588378212264E+00 -.16614318731781E+01 -.84006916305201E+00
 h  -.19520110537117E+01 0.25071786155760E+00 -.50403261137026E+00
 h  -.13688520080005E+00 -.15451250687133E+01 0.57212887422189E+00
 h  0.18766423041166E+01 0.71201480507750E+00 0.23682301917491E+00
    10

 cl 0.84855985047431E-01 0.60249241221474E-01 0.72884037525015E+00
 o  0.17541597144188E+01 0.66614498237019E+00 -.75431513564549E+00
 o  -.31897960658049E+00 -.19424939716632E+01 -.34573458371769E+00
 o  -.15815776286261E+01 0.11251469484513E+01 -.44112875074134E+00
 h  0.95634569993849E+00 0.11561970299514E+01 -.91557020029893E+00
 h  -.19149688128911E+01 0.13654564165721E+01 0.37672736605384E+00
 h  0.47665320154335E+00 -.17271706946025E+01 -.85379536762052E+00
 h  -.20009874210239E+01 0.31900780682986E+00 -.51389498724869E+00
 h  -.11329318201480E+00 -.15596568817700E+01 0.55951125262250E+00
 h  0.19350006685515E+01 0.72606204651401E+00 0.17304596278073E+00
    10

 cl 0.96181918050313E-01 0.55611130598520E-01 0.76870985264883E+00
 o  0.17975194167323E+01 0.68103675912959E+00 -.78403800147611E+00
 o  -.32793010473674E+00 -.19852976812733E+01 -.36351331879698E+00
 o  -.16375178585170E+01 0.11623793976139E+01 -.46695991045561E+00
 h  0.98131619928086E+00 0.11866370559583E+01 -.91972901829471E+00
 h  -.20239275883225E+01 0.13784774008102E+01 0.24754549087619E+00
 h  0.48456577073496E+00 -.17900004175281E+01 -.86265069416861E+00
 h  -.20564204826031E+01 0.35736297799334E+00 -.52952208633427E+00
 h  -.90080810388478E-01 -.15778771959695E+01 0.53635406898715E+00
 h  0.19866136918145E+01 0.74034417944791E+00 0.11547788997498E+00
    10

 cl 0.10759202791248E+00 0.51413362752050E-01 0.81014223246147E+00
 o  0.18422412014603E+01 0.69658740306230E+00 -.81683413053762E+00
 o  -.33695426584194E+00 -.20300709630633E+01 -.38197007265673E+00
 o  -.16920308959344E+01 0.12005362450204E+01 -.49822723847639E+00
 h  0.10086875777526E+01 0.12114631803505E+01 -.91734898247206E+00
 h  -.21657348240210E+01 0.14225141196279E+01 0.19933427720591E+00
 h  0.48769522225850E+00 -.18505565420132E+01 -.86719792396270E+00
 h  -.21165232169847E+01 0.36204892034368E+00 -.55452464528707E+00
 h  -.69646484645792E-01 -.15999892378068E+01 0.50046455613782E+00
 h  0.20348361916598E+01 0.75516878694833E+00 0.79073408379639E-01
    10

 cl 0.11906350902664E+00 0.47606955475511E-01 0.85282313013974E+00
 o  0.18876239134310E+01 0.71294061926535E+00 -.85256085932495E+00
 o  -.34584321220898E+00 -.20763964229895E+01 -.40086770869213E+00
 o  -.17458959623791E+01 0.12388033431845E+01 -.53300685758534E+00
 h  0.10432085622965E+01 0.12270160246460E+01 -.90885926609443E+00
 h  -.23328229346499E+01 0.14911810586562E+01 0.20402921271543E+00
 h  0.48588672263916E+00 -.19092279843619E+01 -.86952620208204E+00
 h  -.21715363940074E+01 0.34918234992885E+00 -.58753901586077E+00
 h  -.54180477406680E-01 -.16252209098326E+01 0.45296106467173E+00
 h  0.20809215083891E+01 0.76983930706414E+00 0.66397970406474E-01
    10

 cl 0.13059066855201E+00 0.44130177664986E-01 0.89648654821116E+00
 o  0.19334516733380E+01 0.73016786485426E+00 -.89011854473308E+00
 o  -.35453329839735E+00 -.21239776441439E+01 -.42008027061184E+00
 o  -.18015026175388E+01 0.12769495761364E+01 -.56802323397018E+00
 h  0.10857770240654E+01 0.12322455423972E+01 -.89585649830444E+00
 h  -.24923102325141E+01 0.15654449426779E+01 0.20875709803640E+00
 h  0.48071152125857E+00 -.19663445977532E+01 -.87298815733953E+00
 h  -.22129585078622E+01 0.33910905348779E+00 -.62471214982297E+00
 h  -.45357358821112E-01 -.16517715238881E+01 0.39797739952118E+00
 h  0.21232589258955E+01 0.78259573063071E+00 0.65226105119554E-01
    10

 cl 0.14217502664654E+00 0.40920339765730E-01 0.94090650165831E+00
 o  0.19797950575255E+01 0.74822324698968E+00 -.92818406414600E+00
 o  -.36307039013797E+00 -.21726271283431E+01 -.43959943374849E+00
 o  -.18600704853510E+01 0.13147149705830E+01 -.60185460742629E+00
 h  0.11336602802051E+01 0.12284625428226E+01 -.88061360404719E+00
 h  -.26258141087711E+01 0.16339580113444E+01 0.18976507359275E+00
 h  0.47465994354398E+00 -.20224133250016E+01 -.88140039119362E+00
 h  -.22373643221008E+01 0.34555318010041E+00 -.66259557967861E+00
 h  -.44060885773502E-01 -.16768325255333E+01 0.34187616886634E+00
 h  0.21600472504741E+01 0.79151314699963E+00 0.59859969449988E-01
    10

 cl 0.15382220437777E+00 0.37919978081368E-01 0.98589276966844E+00
 o  0.20268104891137E+01 0.76695474381448E+00 -.96578201656714E+00
 o  -.37151415016375E+00 -.22222239505781E+01 -.45950062281030E+00
 o  -.19218888737869E+01 0.13519957408649E+01 -.63409596868527E+00
 h  0.11815504027117E+01 0.12185009532007E+01 -.86555120008606E+00
 h  -.27263635434820E+01 0.16912827540209E+01 0.13999089291859E+00
 h  0.46969170646698E+00 -.20782745136765E+01 -.89780401412994E+00
 h  -.22453921908145E+01 0.37429588496799E+00 -.69888296345287E+00
 h  -.50439592083672E-01 -.16971132558775E+01 0.29135357810991E+00
 h  0.21912847216016E+01 0.79513340533567E+00 0.39790933902034E-01
    10

 cl 0.16553892512160E+00 0.35079333561608E-01 0.10312877245963E+01
 o  0.20745873432725E+01 0.78618620651383E+00 -.10024012736454E+01
 o  -.37981616407228E+00 -.22726242485810E+01 -.47984000976632E+00
 o  -.19867956952501E+01 0.13889895014349E+01 -.66471206164076E+00
 h  0.12237352701054E+01 0.12053099072427E+01 -.85295340499346E+00
 h  -.27919141695774E+01 0.17346446589694E+01 0.58729707380889E-01
 h  0.46588266322959E+00 -.21350463626832E+01 -.92329438191514E+00
 h  -.22404115786551E+01 0.42400093082984E+00 -.73221884165626E+00
 h  -.64502681529933E-01 -.17102847241608E+01 0.25053503358209E+00
 h  0.22189727624729E+01 0.79253214338973E+00 0.13845626240713E-02
    10

 cl 0.17732878601330E+00 0.32356827531956E-01 0.10769616088289E+01
 o  0.21229925002498E+01 0.80582035226796E+00 -.10379395535317E+01
 o  -.38777167430958E+00 -.23235710380954E+01 -.50054834754088E+00
 o  -.20543253833618E+01 0.14262725799098E+01 -.69387093653824E+00
 h  0.12570309631850E+01 0.11904384548697E+01 -.84515933976362E+00
 h  -.28238592732014E+01 0.17629862217727E+01 -.51011634401512E-01
 h  0.46123717224721E+00 -.21938044876720E+01 -.95666543715357E+00
 h  -.22275524416974E+01 0.48585170422368E+00 -.76207225734895E+00
 h  -.86709602062374E-01 -.17166238170931E+01 0.21891044649456E+00
 h  0.22466277044664E+01 0.78317080728315E+00 -.52744811837917E-01
    10

 cl 0.18919024526154E+00 0.29717255336212E-01 0.11228070417282E+01
 o  0.21716054050669E+01 0.82588034908458E+00 -.10726385935322E+01
 o  -.39510925777277E+00 -.23746935563001E+01 -.52142798263690E+00
 o  -.21235606037180E+01 0.14646647697913E+01 -.72210793064256E+00
 h  0.12824919906858E+01 0.11736155543138E+01 -.84487388066094E+00
 h  -.28310374162323E+01 0.17786941436910E+01 -.17981057925197E+00
 h  0.45285072627555E+00 -.22551749265087E+01 -.99511318568500E+00
 h  -.22119405642986E+01 0.54389141889658E+00 -.78872672775089E+00
 h  -.11770194825350E+00 -.17192724481760E+01 0.19204141129398E+00
 h  0.22785577034628E+01 0.76664255126842E+00 -.11443234637298E+00
    10

 cl 0.20111719508205E+00 0.27129122086202E-01 0.11687342511915E+01
 o  0.22198359212634E+01 0.84646768072214E+00 -.11069849376155E+01
 o  -.40164505586361E+00 -.24255990362266E+01 -.54223525326978E+00
 o  -.21924488383332E+01 0.15043581746782E+01 -.75091930289925E+00
 h  0.13044981392740E+01 0.11537447874696E+01 -.85481892139047E+00
 h  -.28433603805336E+01 0.17937458007975E+01 -.30289099497774E+00
 h  0.43851231257982E+00 -.23190964452842E+01 -.10354735155921E+01
 h  -.21958287255883E+01 0.58267212161258E+00 -.81267747051338E+00
 h  -.15744310029084E+00 -.17228788272939E+01 0.16418455373860E+00
 h  0.23188258555155E+01 0.74231205263847E+00 -.17187858275496E+00
    10

 cl 0.21309965130476E+00 0.24563770734066E-01 0.12146675724248E+01
 o  0.22671439451889E+01 0.86768186144344E+00 -.11414075228456E+01
 o  -.40738488429006E+00 -.24759699273997E+01 -.56274895787725E+00
 o  -.22570685980331E+01 0.15437294334922E+01 -.78301127050688E+00
 h  0.13284974633896E+01 0.11301042719285E+01 -.87681924288347E+00
 h  -.29231737734237E+01 0.18340887727088E+01 -.37763377581508E+00
 h  0.41781282139800E+00 -.23848333204724E+01 -.10753133100964E+01
 h  -.21788672148557E+01 0.60171914514767E+00 -.83313294540646E+00
 h  -.20470340010620E+00 -.17319650618445E+01 0.13053085175534E+00
 h  0.23699374514507E+01 0.70934716385061E+00 -.21537722802576E+00
    10

 cl 0.22512558623614E+00 0.21996093704467E-01 0.12605450109632E+01
 o  0.23132206673422E+01 0.88950619476805E+00 -.11758408089698E+01
 o  -.41253885291270E+00 -.25256177791794E+01 -.58279158286487E+00
 o  -.23165906344396E+01 0.15818038651603E+01 -.81859108112321E+00
 h  0.13590852098760E+01 0.11028426628826E+01 -.91115707477339E+00
 h  -.30816484638135E+01 0.19010257273522E+01 -.40263541382141E+00
 h  0.39246016439098E+00 -.24511457296125E+01 -.11135514749747E+01
 h  -.21629574051877E+01 0.61504411946568E+00 -.84785232288879E+00
 h  -.25716169082778E+00 -.17498845975547E+01 0.88180629059816E-01
 h  0.24318069821211E+01 0.66802210947135E+00 -.24489278088746E+00
    10

 cl 0.23718366494869E+00 0.19405967874194E-01 0.13063190447372E+01
 o  0.23580637905478E+01 0.91171306881400E+00 -.12097039282455E+01
 o  -.41746514880097E+00 -.25745053129089E+01 -.60224053932588E+00
 o  -.23747661597326E+01 0.16196094405334E+01 -.85524861233616E+00
 h  0.13986694962950E+01 0.10729087023724E+01 -.95653447879557E+00
 h  -.32545132555783E+01 0.19638145347921E+01 -.41779717144313E+00
 h  0.36577475081570E+00 -.25165425105580E+01 -.11505069866786E+01
 h  -.21528185769952E+01 0.63703177167182E+00 -.85491713009048E+00
 h  -.31183644052184E+00 -.17782267530720E+01 0.36332994032818E-01
 h  0.25018282095098E+01 0.62126734819418E+00 -.27039100914193E+00
    10

 cl 0.24926406442698E+00 0.16779878506907E-01 0.13519554809548E+01
 o  0.24019589619258E+01 0.93391273270515E+00 -.12423590119517E+01
 o  -.42255988629854E+00 -.26227619166192E+01 -.62106999374099E+00
 o  -.24337948640920E+01 0.16576705204292E+01 -.89175498298532E+00
 h  0.14465187953089E+01 0.10417519484778E+01 -.10104018292941E+01
 h  -.34022037138518E+01 0.20055926924186E+01 -.44307104037477E+00
 h  0.34139610375320E+00 -.25795634870457E+01 -.11872900485469E+01
 h  -.21531035954940E+01 0.67622547677765E+00 -.85363005816909E+00
 h  -.36559130585207E+00 -.18162507634660E+01 -.23701712591283E-01
 h  0.25760728322380E+01 0.57414353548320E+00 -.30418178054445E+00
    10

 cl 0.26135793583548E+00 0.14111231055701E-01 0.13974314021459E+01
 o  0.24454125146784E+01 0.95570024074555E+00 -.12734623684400E+01
 o  -.42811778110431E+00 -.26707032210514E+01 -.63941935548981E+00
 o  -.24944040629200E+01 0.16960946167920E+01 -.92774323217332E+00
 h  0.14984426108095E+01 0.10108694159021E+01 -.10694501044116E+01
 h  -.35101600380099E+01 0.20218745038748E+01 -.48380207154203E+00
 h  0.32158716899823E+00 -.26390012342848E+01 -.12246682471302E+01
 h  -.21668233186109E+01 0.73540597507236E+00 -.84425694653268E+00
 h  -.41567980258992E+00 -.18602629672216E+01 -.88559034191658E-01
 h  0.26506624596863E+01 0.53190935843920E+00 -.35478752431823E+00
    10

 cl 0.27345691156325E+00 0.11398489261369E-01 0.14427325896868E+01
 o  0.24890202161350E+01 0.97678771105492E+00 -.13030175776254E+01
 o  -.43423134792320E+00 -.27188135487706E+01 -.65761297639826E+00
 o  -.25568358838679E+01 0.17349724381719E+01 -.96313551195192E+00
 h  0.15479946129421E+01 0.98123751778690E+00 -.11303437151186E+01
 h  -.35736979029979E+01 0.20131300358731E+01 -.54037272427894E+00
 h  0.30618781257005E+00 -.26939878171197E+01 -.12621190673581E+01
 h  -.21947896828525E+01 0.81265083249071E+00 -.82750181045330E+00
 h  -.46028555427675E+00 -.19036834088263E+01 -.15341526677706E+00
 h  0.27226621914771E+01 0.49846606229009E+00 -.42534898689947E+00
    10

 cl 0.28555230873683E+00 0.86429838766149E-02 0.14878507926141E+01
 o  0.25332165818841E+01 0.99708983517437E+00 -.13313016189210E+01
 o  -.44080178337936E+00 -.27675959963812E+01 -.67603288238058E+00
 o  -.26211803303872E+01 0.17744901256050E+01 -.99799544801752E+00
 h  0.15899100481465E+01 0.95298280713754E+00 -.11906442410121E+01
 h  -.35931531277408E+01 0.19823561570106E+01 -.61109939606391E+00
 h  0.29310169010761E+00 -.27439878921507E+01 -.12979247765709E+01
 h  -.22351840523640E+01 0.90195965377335E+00 -.80393984045577E+00
 h  -.49878083493330E+00 -.19393079525060E+01 -.21382527423204E+00
 h  0.27906066326769E+01 0.47530814254082E+00 -.51384181250556E+00
    10

 cl 0.29763418260133E+00 0.58470198515899E-02 0.15327812591670E+01
 o  0.25779919036468E+01 0.10167637576860E+01 -.13588149509125E+01
 o  -.44766175053054E+00 -.28172770253961E+01 -.69488807742393E+00
 o  -.26871637686290E+01 0.18148304500288E+01 -.10326198943911E+01
 h  0.16240543398520E+01 0.92580534089291E+00 -.12492922760259E+01
 h  -.35775176572276E+01 0.19354603422755E+01 -.69127255900416E+00
 h  0.27985120037781E+00 -.27888072139112E+01 -.13302250677645E+01
 h  -.22832697379975E+01 0.99441562445451E+00 -.77351221792832E+00
 h  -.53128835359992E+00 -.19639217202737E+01 -.26825691962957E+00
 h  0.28549873806178E+01 0.46045439607080E+00 -.61333958936502E+00
    10

 cl 0.30969203232497E+00 0.30129409515840E-02 0.15775206833648E+01
 o  0.26228421010711E+01 0.10362037066273E+01 -.13862480009940E+01
 o  -.45471365632938E+00 -.28676213028678E+01 -.71410631100151E+00
 o  -.27531843908846E+01 0.18559151809894E+01 -.10678200930867E+01
 h  0.16558768392413E+01 0.89983939378196E+00 -.13061179665032E+01
 h  -.35589246900125E+01 0.18819359611517E+01 -.76847331621739E+00
 h  0.26495590445490E+00 -.28286309861702E+01 -.13581015119218E+01
 h  -.23322317088586E+01 0.10816390393290E+01 -.73571033721939E+00
 h  -.55784020565473E+00 -.19811963070462E+01 -.31869282154937E+00
 h  0.29185755050363E+01 0.44768161751792E+00 -.71304782527068E+00
    10

 cl 0.32171598956292E+00 0.14289854446214E-03 0.16220669558865E+01
 o  0.26670647465009E+01 0.10559013661843E+01 -.14142667071686E+01
 o  -.46197582594355E+00 -.29180877315676E+01 -.73344874633898E+00
 o  -.28153974928240E+01 0.18975053336046E+01 -.11050033617509E+01
 h  0.16927534309541E+01 0.87593802543882E+00 -.13609988211823E+01
 h  -.36044003333546E+01 0.18281938447111E+01 -.81968941992520E+00
 h  0.24845153379060E+00 -.28640291104564E+01 -.13820239454611E+01
 h  -.23759632277648E+01 0.11608705982768E+01 -.69117415652183E+00
 h  -.57816118268532E+00 -.19992355693295E+01 -.36836961089142E+00
 h  0.29853708538444E+01 0.42847065112675E+00 -.80256155397188E+00
    10

 cl 0.33369861370776E+00 -.27612697254719E-02 0.16664205201322E+01
 o  0.27102239890236E+01 0.10760519933280E+01 -.14430879809338E+01
 o  -.46953341647370E+00 -.29681314107464E+01 -.75267917839182E+00
 o  -.28726642699894E+01 0.19396434260953E+01 -.11441913141090E+01
 h  0.17399852599638E+01 0.85520526124770E+00 -.14135337586243E+01
 h  -.37337886016391E+01 0.17688323565367E+01 -.84124631049252E+00
 h  0.23160143913474E+00 -.28959141337135E+01 -.14036053955021E+01
 h  -.24125938366396E+01 0.12366861991618E+01 -.64321674506844E+00
 h  -.59217892927579E+00 -.20258458165110E+01 -.41936925584006E+00