
OPTIMIZATION CYCLE 738
Thu Mar  8 02:27:53 PST 2018
 hostname is c-5-26.local

 frog (c-5-26.local) : TURBOMOLE V7.1 ( ) 5 Apr 2016 at 11:29:09
 Copyright (C) 2016 TURBOMOLE GmbH, Karlsruhe


    2018-03-08 02:27:53.871 


 frog (c-5-26.local) : TURBOMOLE V7.1 ( ) 5 Apr 2016 at 11:29:09
 Copyright (C) 2016 TURBOMOLE GmbH, Karlsruhe


    2018-03-08 02:27:53.871 

 
       `--._            A b     I n i t i o           .-
            `.  M o l e c u l a r   D y n a m i c s  /
              \               .-.       .           / 
               \             /   \     / `.        /  
                `-----._    /     `._.'    `--.__.'   
                        `--'                          
 
 

Reading information from mdmaster                                                                        
 
 =========================================
 TDDFT-SURFACE HOPPING switched on
 Tapavicza, Meyer, and Furche,
 Phys. Chem. Chem. Phys. 13 (2011), 20986.
 =========================================
 
 found keyword $gap_threshold; hop is enforced if gap <  0.500000000000000     
Reading log history information from mdmaster                                                                        
Reading input data from mdlog.3                                                                         
Checking for non-default isotopic masses in control                                                                         
 
No constraints requested.
Reading status from mdmaster                                                                        
Reading actions from mdmaster                                                                        
Getting gradients from control                                                                         
 non-adiabatic coupling vector
 -2.368134546545800E-002  4.694767508859800E-002  1.362980081638500E-002
 -2.863262551060400E-002  3.561469104884000E-002 -4.551311063161500E-002
  6.688267731399300E-002 -7.709963119838199E-002 -7.632493168487300E-003
  2.039511415978800E-003  4.014919288362700E-003 -6.971584010871500E-003
 -3.063306680660600E-004 -2.693922004242200E-003  2.614825864881000E-002
  1.665370641817100E-003  1.061882446361700E-004  3.964101083943800E-003
  4.780258154427700E-002 -5.255569692210900E-002  6.465099070054900E-003
  2.931878314772700E-002  1.377762946284300E-002  1.353197614515800E-002
 -1.378862669326200E-002 -6.662254063873400E-003  3.392019102432300E-003
 leap: Read last 2 entries of RUN.dat
 Old state:           0
 New state:           0
 Propagating Coefficients
 
 ==============Surface Hopping Information================
 
 Probability from           1 to           2 :  4.011170853960457E-004
 Random number   0.959866295842748     
 
 COEFF OF STATE           1 = (0.993263180504690,1.308021004844603E-002)
 COEFF OF STATE           2 = (0.109726701303377,-3.488858523946960E-002)
 
 POPULATION OF STATE           1 =  0.986742837641205     
 POPULATION OF STATE           2 =  1.325716235893225E-002
 SUM OF ALL POPULATIONS =   1.00000000000014     
 
 =========================================================
 
Scaling KE by    1.04548826395    
 
Generating $log data for last completed MD step:                                
t=   29480.0000000                                                              
-0.245939414623      0.957300783014E-01  0.530934685779E-01 ti                  
 0.600475363241      -2.54236297097       1.95013893965     o                   
 -2.38139914297      -1.71538826492      -2.08061304361     o                   
 -2.72892606045      -3.51098094642      -2.03654025211     h                   
-0.145540793478       3.08112725832       1.72185640046     o                   
-0.164113011488       4.83681971820       2.10965884849     h                   
  2.58352091447      0.927330926713      -1.77587178785     o                   
  3.49998258264     -0.353168876502      -2.68731559671     h                   
 0.651018531192      -1.56488424320       3.01951133133     h                   
  40.0000000000       0.00000000000                                             
ti       -0.413203906876E-03  0.268941616006E-03 -0.105364671239E-03            
o         0.110109827442E-04 -0.953465631748E-04  0.942229010619E-03            
o         0.469999465777E-03 -0.100464872008E-03 -0.160963190916E-04            
h         0.412670753036E-02 -0.781820031678E-03  0.138394549464E-02            
o         0.537088193462E-03 -0.470347940279E-03  0.154061105568E-04            
h         0.259563584745E-02 -0.364527729602E-03 -0.884997810193E-03            
o        -0.154512314248E-03  0.149065305880E-03  0.903744535584E-04            
h        -0.629074051387E-03  0.304888079000E-03 -0.634397835395E-03            
h        -0.164914159316E-03 -0.373120407130E-02 -0.112369377756E-01            
 0.109157732090      -1152.00796154       0.00000000000                         
-0.140446177335E-01 -0.121565928062E-01  0.672286692244E-01                     
 0.195537945086E-01  0.266294290914      0.307021252838                         
-0.103759546485E-01 -0.210187627975E-01 -0.153637510513E-01                     
-0.174913394698E-02 -0.741208755541E-02 -0.194839530030E-02                     
 0.167451659725E-01  0.312108174973E-01 -0.974514396961E-03                     
 0.153478457280E-02 -0.700711373331E-02  0.892876787221E-04                     
 0.174371884768E-01  0.107763574515E-01 -0.795682672049E-02                     
 0.139758516685E-02  0.241954816039E-02  0.189469040853E-02                     
-0.304988123729E-01 -0.263106457141     -0.349990412679                         
 

   Time t=   29480.0000000     a.u. (  713.062240000     fs)

   e x e c u t i n g    M D   s t e p   (leapfrog algorithm)

   Number of MD steps left:     762
 
   Time t=   29520.0000000     a.u. (  714.029760000     fs)

 
Provisional $current data:                                                      
t=   29520.0000000                                                              
-0.262210214869      0.106710502472      0.476469718485E-01 ti                  
 0.599843080303      -2.56078575301       1.97098489718     o                   
 -2.36202993889      -1.71825376931      -2.08041404014     o                   
 -2.56233463475      -3.53579939235      -1.97948579349     h                   
-0.124975906470       3.06060111354       1.72252610680     o                   
-0.616240492556E-01   4.82834031809       2.07418118546     h                   
  2.57638381678      0.932702347383      -1.77182029775     o                   
  3.47360262049     -0.343080266336      -2.71434138340     h                   
 0.670979958230      -1.48502251582       2.87480119813     h                   
  40.0000000000       0.00000000000                                             
ti       -0.415918753678E-03  0.280684678493E-03 -0.139224875074E-03            
o        -0.161625935679E-04 -0.470928315207E-03  0.532870205662E-03            
o         0.495121020320E-03 -0.732488259454E-04  0.508698239705E-05            
h         0.425845668940E-02 -0.634416066992E-03  0.145844205344E-02            
o         0.525685402344E-03 -0.524695062767E-03  0.171192209581E-04            
h         0.261985156187E-02 -0.216752800742E-03 -0.906889960353E-03            
o        -0.182440490489E-03  0.137305759809E-03  0.103565324740E-03            
h        -0.674331982145E-03  0.257887879084E-03 -0.690840729815E-03            
h         0.510259589545E-03  0.204144784621E-02 -0.369912096119E-02            
 
    50 energy records for statistics read from mdlog.3                                                                         
       Total Energy (H):
              current value   -1151.89880381    
                    average   -1151.89568923    
         standard deviation   0.121549736085E-01
                      drift  -0.473767621952E-04
        jump from last step   0.173892044313E-02
 
     Kinetic Energy (H):
              current value   0.109157732090    
                    average   0.105783553569    
         standard deviation   0.412089504692E-01
                      drift  -0.170017058184E-03
 avg. quasi-temperature (K)    3181.02495957    
      number of constraints       0
 
         Pressure (GPa):
              current value    0.00000000000    
                    average    0.00000000000    
 
 
   approx integration error   0.105986640489    
 
Estimated integration error by reading last steps from mdlog.3                  
 
Generating $log data for last completed MD step:                                
t=   29480.0000000                                                              
-0.245939414623      0.957300783014E-01  0.530934685779E-01 ti                  
 0.600475363241      -2.54236297097       1.95013893965     o                   
 -2.38139914297      -1.71538826492      -2.08061304361     o                   
 -2.72892606045      -3.51098094642      -2.03654025211     h                   
-0.145540793478       3.08112725832       1.72185640046     o                   
-0.164113011488       4.83681971820       2.10965884849     h                   
  2.58352091447      0.927330926713      -1.77587178785     o                   
  3.49998258264     -0.353168876502      -2.68731559671     h                   
 0.651018531192      -1.56488424320       3.01951133133     h                   
  40.0000000000       0.00000000000                                             
ti       -0.413203906876E-03  0.268941616006E-03 -0.105364671239E-03            
o         0.110109827442E-04 -0.953465631748E-04  0.942229010619E-03            
o         0.469999465777E-03 -0.100464872008E-03 -0.160963190916E-04            
h         0.412670753036E-02 -0.781820031678E-03  0.138394549464E-02            
o         0.537088193462E-03 -0.470347940279E-03  0.154061105568E-04            
h         0.259563584745E-02 -0.364527729602E-03 -0.884997810193E-03            
o        -0.154512314248E-03  0.149065305880E-03  0.903744535584E-04            
h        -0.629074051387E-03  0.304888079000E-03 -0.634397835395E-03            
h        -0.164914159316E-03 -0.373120407130E-02 -0.112369377756E-01            
 0.109157732090      -1152.00796154       0.00000000000                         
-0.140446177335E-01 -0.121565928062E-01  0.672286692244E-01                     
 0.195537945086E-01  0.266294290914      0.307021252838                         
-0.103759546485E-01 -0.210187627975E-01 -0.153637510513E-01                     
-0.174913394698E-02 -0.741208755541E-02 -0.194839530030E-02                     
 0.167451659725E-01  0.312108174973E-01 -0.974514396961E-03                     
 0.153478457280E-02 -0.700711373331E-02  0.892876787221E-04                     
 0.174371884768E-01  0.107763574515E-01 -0.795682672049E-02                     
 0.139758516685E-02  0.241954816039E-02  0.189469040853E-02                     
-0.304988123729E-01 -0.263106457141     -0.349990412679                         
 
Generated $current data for new MD step:                                        
t=   29520.0000000                                                              
-0.262210214869      0.106710502472      0.476469718485E-01 ti                  
 0.599843080303      -2.56078575301       1.97098489718     o                   
 -2.36202993889      -1.71825376931      -2.08041404014     o                   
 -2.56233463475      -3.53579939235      -1.97948579349     h                   
-0.124975906470       3.06060111354       1.72252610680     o                   
-0.616240492556E-01   4.82834031809       2.07418118546     h                   
  2.57638381678      0.932702347383      -1.77182029775     o                   
  3.47360262049     -0.343080266336      -2.71434138340     h                   
 0.670979958230      -1.48502251582       2.87480119813     h                   
  40.0000000000       0.00000000000                                             
ti       -0.415918753678E-03  0.280684678493E-03 -0.139224875074E-03            
o        -0.161625935679E-04 -0.470928315207E-03  0.532870205662E-03            
o         0.495121020320E-03 -0.732488259454E-04  0.508698239705E-05            
h         0.425845668940E-02 -0.634416066992E-03  0.145844205344E-02            
o         0.525685402344E-03 -0.524695062767E-03  0.171192209581E-04            
h         0.261985156187E-02 -0.216752800742E-03 -0.906889960353E-03            
o        -0.182440490489E-03  0.137305759809E-03  0.103565324740E-03            
h        -0.674331982145E-03  0.257887879084E-03 -0.690840729815E-03            
h         0.510259589545E-03  0.204144784621E-02 -0.369912096119E-02            
 
Logging MD run data ($log) to file mdlog.3                                                                         
Writing data for next step ($current) to mdlog.3                                                                         

    2018-03-08 02:27:55.929 

         total cpu-time :   2.06 seconds
         total wall-time :   2.06 seconds

          ******************************************************



    ------------------------------------------------------------------------
         total  cpu-time :   2.06 seconds
         total wall-time :   2.06 seconds
    ------------------------------------------------------------------------

   ****  frog : all done  ****


    2018-03-08 02:27:55.929 

 operating system is UNIX !
 hostname is c-5-26.local

 ridft (c-5-26.local) : TURBOMOLE V7.1 ( ) 5 Apr 2016 at 11:29:09
 Copyright (C) 2016 TURBOMOLE GmbH, Karlsruhe


    2018-03-08 02:27:56.383 



                                  r i d f t

                        DFT program with RI approximation 
                                for coulomb part 




                                                 
                                 References:     
                                                 
          TURBOMOLE:                             
              R. Ahlrichs, M. Baer, M. Haeser, H. Horn, and
              C. Koelmel
              Electronic structure calculations on workstation
              computers: the program system TURBOMOLE
              Chem. Phys. Lett. 162: 165 (1989)
          Density Functional:                              
              O. Treutler and R. Ahlrichs                      
              Efficient Molecular Numerical Integration Schemes
              J. Chem. Phys. 102: 346 (1995)                   
          Parallel Version:                                
              Performance of parallel TURBOMOLE for Density    
              Functional Calculations                          
              M. v. Arnim and R. Ahlrichs                      
              J. Comp. Chem. 19: 1746 (1998)                   
          RI-J Method:                                     
              Auxiliary Basis Sets to approximate Coulomb      
              Potentials                                       
              Chem. Phys. Lett. 240: 283 (1995)                
              K. Eichkorn, O. Treutler, H. Oehm, M. Haeser     
              and R. Ahlrichs                                  
              Chem. Phys. Lett. 242: 652 (1995)                
                                                           
              Auxiliary Basis Sets for Main Row Atoms and their
              Use to approximate Coulomb Potentials            
              K. Eichkorn, F. Weigend, O. Treutler and         
              R. Ahlrichs                                      
              Theo. Chem. Acc. 97: 119 (1997)                   
                                                           
              Accurate Coulomb-fitting basis sets for H to Rn 
              F. Weigend                                        
              Phys. Chem. Chem. Phys. 8: 1057 (2006)            
                                                           
          Multipole accelerated RI-J (MARI-J):             
              Fast evaluation of the Coulomb potential for     
              electron densities using multipole accelerated   
              resolution of identity approximation             
              M. Sierka, A. Hogekamp and R. Ahlrichs           
              J. Chem. Phys. 118: 9136 (2003)                  
          RI-JK Method:                                     
              A fully direct RI-HF algorithm: Implementation,
              optimised auxiliary basis sets, demonstration of
              accuracy and efficiency                         
              F. Weigend                                      
              Phys. Chem. Chem. Phys. 4: 4285 (2002)           
          Two-component HF and DFT with spin-orbit coupling:  
              Self-consistent treatment of spin-orbit         
              interactions with efficient Hartree-Fock and    
              density functional methods                      
              M. K. Armbruster, F. Weigend, C. van Wüllen and 
              W. Klopper                                      
              Phys. Chem. Chem. Phys. 10: 1748 (2008)         
          Relativistic all-electron 2c calculations           
              An efficient implementation of two-component    
              relativistic exact-decoupling methods for large 
              molecules                                       
              D. Peng, N. Middendorf, F. Weigend, M. Reiher   
              J. Chem. Phys. 138, 184105 (2013)               
                                         


 


              +--------------------------------------------------+
              |      general information about current run       |
              +--------------------------------------------------+

 

 DENSITY CONVERGENCE CHECK SWITCHED ON !
 SCF CONVERGENCE IF RMS(delta[D]) <     0.1000000000E-06

 PBE0 hybrid functional
 exchange:    3/4 (LDA+PBE) + 1/4 HF
 correlation: LDA (PW) + PBE
 A Hybrid-DFT calculation using the RI-J approximation will be carried out.
 Allocatable memory for RI due to $ricore (MB):         500


              +--------------------------------------------------+
              | Atomic coordinate, charge and isotop information |
              +--------------------------------------------------+

                    atomic coordinates            atom    charge  isotop
         -0.26221021    0.10671050    0.04764697    ti    22.000     0
          0.59984308   -2.56078575    1.97098490    o      8.000     0
         -2.36202994   -1.71825377   -2.08041404    o      8.000     0
         -2.56233463   -3.53579939   -1.97948579    h      1.000     0
         -0.12497591    3.06060111    1.72252611    o      8.000     0
         -0.06162405    4.82834032    2.07418119    h      1.000     0
          2.57638382    0.93270235   -1.77182030    o      8.000     0
          3.47360262   -0.34308027   -2.71434138    h      1.000     0
          0.67097996   -1.48502252    2.87480120    h      1.000     0
 
       center of nuclear mass  :   -0.00000002   -0.00000002    0.00000001
       center of nuclear charge:    0.02182358   -0.00816930    0.00057934

              +--------------------------------------------------+
              |               basis set information              |
              +--------------------------------------------------+

              we will work with the 1s 3p 5d 7f 9g ... basis set
              ...i.e. with spherical basis functions...

   type   atoms  prim   cont   basis
   ---------------------------------------------------------------------------
    ti       1     73     31   def2-SVP   [5s3p2d1f|14s9p5d1f]
    o        4     24     14   def2-SVP   [3s2p1d|7s4p1d]
    h        4      7      5   def2-SVP   [2s1p|4s1p]
   ---------------------------------------------------------------------------
   total:    9    197    107
   ---------------------------------------------------------------------------

   total number of primitive shells          :   46
   total number of contracted shells         :   47
   total number of cartesian basis functions :  116
   total number of SCF-basis functions       :  107


 integral neglect threshold       :  0.29E-10
 integral storage threshold THIZE :  0.10E-04
 integral storage threshold THIME :         5

 RI-J AUXILIARY BASIS SET information:

              we will work with the 1s 3p 5d 7f 9g ... basis set
              ...i.e. with spherical basis functions...

   type   atoms  prim   cont   basis
   ---------------------------------------------------------------------------
    ti       1    107     89   def2-SVP   [8s5p5d2f3g|19s5p5d3f3g]
    o        4     70     49   def2-SVP   [6s4p3d1f1g|12s5p4d2f1g]
    h        4     16     11   def2-SVP   [3s1p1d|5s2p1d]
   ---------------------------------------------------------------------------
   total:    9    451    329
   ---------------------------------------------------------------------------

   total number of primitive shells          :   67
   total number of contracted shells         :  103
   total number of cartesian basis functions :  410
   total number of SCF-basis functions       :  329


 symmetry group of the molecule :   c1 

 the group has the following generators :
   c1(z)

    1 symmetry operations found

 there are 1 real representations :   a   

 maximum number of shells which are related by symmetry :  1


    mo occupation :
   irrep   mo's   occupied
    a      107       29
 
 number of basis functions   :          107
 number of occupied orbitals :           29
 
  
           ------------------
           density functional
           ------------------
 PBE0 hybrid functional
 exchange:    3/4 (LDA+PBE) + 1/4 HF
 correlation: LDA (PW) + PBE
 iterations will be done with small grid
  
 spherical integration : Lebedev's spherical grid
 spherical gridsize    :           3
    i.e. gridpoints    :         302
 value for diffuse not defined
 radial integration    : Chebyshev 2nd kind (scaling 3)
 radial gridsize       :           3
 integration cells     :           9
 partition function    : becke
 partition sharpness   :           3
  

 biggest AO integral is expected to be    13.493451081
  
           ------------------------
               RI-J - INFORMATION
           ------------------------
 Contributions to RI integral batches: 
  neglected integral batches:          63
  direct contribution:                  0
  memory contribution:        1065
 Memory core needed for (P|Q) and Cholesky      1 MByte
 Memory core minimum needed except of (P|Q)     1 MByte
 Total minimum memory core needed (sum)         1 MByte
  
 ****************************************
 Memory allocated for RI-J    22 MByte
 ****************************************
                                            

          ------------------------
          nuclear repulsion energy  :   329.671607198    
          ------------------------

 
          -----------------
          -S,T+V- integrals
          -----------------

 1e-integrals will be neglected if expon. factor < 0.288100E-11
 
   Difference densities algorithm switched on.
   The maximal number of linear combinations of
   difference densities is          20 .

 DIIS switched on: error vector is FDS-SDF
 Max. Iterations for DIIS is     :   4
 DIIS matrix (see manual) 
    Scaling factor of diagonals  :  1.200
    threshold for scaling factor :  0.000

 scf convergence criterion : increment of total energy < .1000000D-06
                  and increment of one-electron energy < .1000000D-03

  MOs are in ASCII format !


 automatic virtual orbital shift switched on 
      shift if e(lumo)-e(homo) < 0.10000000    


 reading orbital data $scfmo  from file mos
 orbital characterization : scfconv=7

 DSCF restart information will be dumped onto file mos


 Starting SCF iterations

          Overall gridpoints after grid construction =         13485

 ITERATION  ENERGY          1e-ENERGY        2e-ENERGY     RMS[dD(SAO)]   TOL
   1  -1151.9764850201    -2237.0677551     755.41966293    0.000D+00 0.287D-10
                            Exc = -58.6863814045     Coul =  832.949539549    
                            exK = -18.8434952168    
                              N = 58.001145810    
                            current damping = 0.700
 
          max. resid. norm for Fia-block=  3.320D-02 for orbital     22a         
          max. resid. fock norm         =  1.310D-01 for orbital    103a         

 ITERATION  ENERGY          1e-ENERGY        2e-ENERGY     RMS[dD(SAO)]   TOL
   2  -1151.9803595868    -2237.0580539     755.40608711    0.124D-02 0.182D-10
                            Exc = -58.6845922481      Eck =  814.090679354    
                              N = 58.001134660    
                            current damping = 0.650
 
          Norm of current diis error: 0.66653E-01
          max. resid. norm for Fia-block=  1.458D-02 for orbital     22a         
          max. resid. fock norm         =  5.582D-02 for orbital    103a         

 ITERATION  ENERGY          1e-ENERGY        2e-ENERGY     RMS[dD(SAO)]   TOL
   3  -1151.9811617453    -2237.0202031     755.36743415    0.589D-03 0.139D-10
                            Exc = -58.6871953897      Eck =  814.054629539    
                              N = 58.001126873    
                            current damping = 0.500
 
          Norm of current diis error: 0.29566E-01
          max. resid. norm for Fia-block=  6.179D-03 for orbital     22a         
          max. resid. fock norm         =  2.193D-02 for orbital    103a         

 ITERATION  ENERGY          1e-ENERGY        2e-ENERGY     RMS[dD(SAO)]   TOL
   4  -1151.9812818206    -2237.1356006     755.48271159    0.320D-03 0.129D-10
                            Exc = -58.6836576875      Eck =  814.166369276    
                              N = 58.001123081    
                            current damping = 0.550
 
          Norm of current diis error: 0.22533E-01
          max. resid. norm for Fia-block=  2.473D-03 for orbital     22a         
          max. resid. fock norm         =  7.432D-03 for orbital    103a         

 ITERATION  ENERGY          1e-ENERGY        2e-ENERGY     RMS[dD(SAO)]   TOL
   5  -1151.9813517705    -2237.0282463     755.37528736    0.140D-03 0.121D-10
                            Exc = -58.6860576311      Eck =  814.061344989    
                              N = 58.001123320    
                            current damping = 0.600
 
          Norm of current diis error: 0.55696E-02
          max. resid. norm for Fia-block=  8.264D-04 for orbital     22a         
          max. resid. fock norm         =  2.586D-03 for orbital    103a         
          mo-orthogonalization: Cholesky decomposition

 ITERATION  ENERGY          1e-ENERGY        2e-ENERGY     RMS[dD(SAO)]   TOL
   6  -1151.9813568341    -2237.0538119     755.40084786    0.450D-04 0.118D-10
                            Exc = -58.6857918398      Eck =  814.086639702    
                              N = 58.001122733    
                            current damping = 0.650
 
          Norm of current diis error: 0.24071E-02
          max. resid. norm for Fia-block=  3.085D-04 for orbital     22a         
          max. resid. fock norm         =  9.947D-04 for orbital    103a         

 ITERATION  ENERGY          1e-ENERGY        2e-ENERGY     RMS[dD(SAO)]   TOL
   7  -1151.9813578094    -2237.0514908     755.39852579    0.183D-04 0.116D-10
                            Exc = -58.6858648210      Eck =  814.084390607    
                              N = 58.001122807    
                            current damping = 0.700
 
          Norm of current diis error: 0.72098E-03
          max. resid. norm for Fia-block=  1.326D-04 for orbital     22a         
          max. resid. fock norm         =  3.847D-04 for orbital    103a         

 ITERATION  ENERGY          1e-ENERGY        2e-ENERGY     RMS[dD(SAO)]   TOL
   8  -1151.9813579271    -2237.0498172     755.39685205    0.659D-05 0.113D-10
                            Exc = -58.6857976863      Eck =  814.082649740    
                              N = 58.001122760    
                            current damping = 0.550
 
          Norm of current diis error: 0.28401E-03
          max. resid. norm for Fia-block=  5.751D-05 for orbital     22a         
          max. resid. fock norm         =  1.605D-04 for orbital    103a         

 ITERATION  ENERGY          1e-ENERGY        2e-ENERGY     RMS[dD(SAO)]   TOL
   9  -1151.9813579494    -2237.0501886     755.39722342    0.312D-05 0.110D-10
                            Exc = -58.6858390474      Eck =  814.083062472    
                              N = 58.001122782    
                            current damping = 0.600
 
          Norm of current diis error: 0.14525E-03
          max. resid. norm for Fia-block=  2.542D-05 for orbital     22a         
          max. resid. fock norm         =  5.721D-05 for orbital    107a         

 ITERATION  ENERGY          1e-ENERGY        2e-ENERGY     RMS[dD(SAO)]   TOL
  10  -1151.9813579509    -2237.0509463     755.39798112    0.165D-05 0.108D-10
                            Exc = -58.6858075773      Eck =  814.083788697    
                              N = 58.001122749    
                            current damping = 0.450
 
          Norm of current diis error: 0.14883E-03
          max. resid. norm for Fia-block=  1.361D-05 for orbital     22a         
          max. resid. fock norm         =  2.232D-05 for orbital    103a         
          mo-orthogonalization: Cholesky decomposition

 ITERATION  ENERGY          1e-ENERGY        2e-ENERGY     RMS[dD(SAO)]   TOL
  11  -1151.9813579539    -2237.0500748     755.39710960    0.924D-06 0.106D-10
                            Exc = -58.6858174091      Eck =  814.082927013    
                              N = 58.001122764    
                            current damping = 0.500
 
          Norm of current diis error: 0.62484E-04
          max. resid. norm for Fia-block=  6.415D-06 for orbital     18a         
          max. resid. fock norm         =  9.206D-06 for orbital     28a         

 ENERGY & DENSITY CONVERGED !

          Overall gridpoints after grid construction =         48499

 ITERATION  ENERGY          1e-ENERGY        2e-ENERGY     RMS[dD(SAO)]   TOL
  12  -1151.9802269683    -2237.0501647     755.39833053    0.406D-06 0.103D-10
                            Exc = -58.6846830765      Eck =  814.083013603    
                              N = 58.000031133    
                            current damping = 0.550
 
          Norm of current diis error: 0.19451E-04
          max. resid. norm for Fia-block=  1.787D-06 for orbital     22a         
          max. resid. fock norm         =  2.513D-06 for orbital    107a         

 End of SCF iterations

   convergence criteria satisfied after   12 iterations


                  ------------------------------------------ 
                 |  total energy      =  -1151.98022696832  |
                  ------------------------------------------ 
                 :  kinetic energy    =   1149.04406011160  :
                 :  potential energy  =  -2301.02428707992  :
                 :  virial theorem    =      1.99745120030  :
                 :  wavefunction norm =      1.00000000000  :
                  .......................................... 


 orbitals $scfmo  will be written to file mos

    irrep                 25a         26a         27a         28a         29a   
 eigenvalues H         -0.34997    -0.33963    -0.33245    -0.32029    -0.30407
            eV          -9.5233     -9.2419     -9.0464     -8.7155     -8.2742
 occupation              2.0000      2.0000      2.0000      2.0000      2.0000 

    irrep                 30a         31a         32a         33a         34a   
 eigenvalues H         -0.05999    -0.05581    -0.04539    -0.01531     0.00189
            eV          -1.6323     -1.5186     -1.2352     -0.4165      0.0513
 
 
 
 
 ==============================================================================
                           electrostatic moments
 ==============================================================================

 reference point for electrostatic moments:    0.00000   0.00000   0.00000

 
              nuc           elec       ->  total
 ------------------------------------------------------------------------------
                          charge      
 ------------------------------------------------------------------------------
          58.000000     -58.000000       0.000000
 
 ------------------------------------------------------------------------------
                       dipole moment  
 ------------------------------------------------------------------------------
   x       1.265768      -1.485446      -0.219679
   y      -0.473819       0.731810       0.257991
   z       0.033602       0.246488       0.280090
 
   | dipole moment | =     0.4396 a.u. =     1.1174 debye 
 
 ------------------------------------------------------------------------------
                     quadrupole moment
 ------------------------------------------------------------------------------
  xx     121.337036    -150.342788     -29.005753
  yy     196.366121    -221.576191     -25.210071
  zz     138.457447    -166.877081     -28.419634
  xy      42.302602     -43.088662      -0.786060
  xz       7.698767      -9.750755      -2.051989
  yz      30.962216     -27.042974       3.919242
 
     1/3  trace=     -27.545153
     anisotropy=       8.549446
 
 ==============================================================================
 


    ------------------------------------------------------------------------
         total  cpu-time :  14.23 seconds
         total wall-time :  14.24 seconds
    ------------------------------------------------------------------------

   ****  ridft : all done  ****


    2018-03-08 02:28:10.227 

fine, there is no data group "$actual step"
next step = rdgrad
 hostname is c-5-26.local
           Doing BLAS/Lapack in the master proc. with  8 CPUs.
           SMPCPUS    set: Shared-memory Parallelization with   8 CPUs.

           SMP Parallelization Reference:
           C. van Wullen, J. Comput. Chem. 32 (2011) 1195--1201

 egrad (c-5-26.local) : TURBOMOLE V7.1 ( ) 5 Apr 2016 at 11:29:09
 Copyright (C) 2016 TURBOMOLE GmbH, Karlsruhe


    2018-03-08 02:28:10.803 




                               e g r a d

                       quantum chemistry group
                       university of karlsruhe
                               germany


             integral direct evaluation of excited state
                     and polarizability gradients
                 and first-order nonadiabatic couplings



          references (see also programs escf, dscf and ridft) 

          review 
          F. Furche and D. Rappoport,  
          "Density functional methods for excited states: 
          equilibrium structure and electronic spectra",
          ch. III of "Computational Photochemistry", ed. by 
          M. Olivucci, vol. 16 of "Theoretical and Computational 
          Chemistry", Elsevier, Amsterdam, 2005.

          RI-J method 
          D. Rappoport and F. Furche, 
          J. Chem. Phys. 122 (2005), 064105.

          Lagrangian method, implementation, benchmarks 
          F. Furche and R. Ahlrichs,
          J. Chem. Phys. 117 (2002), 7433;
          J. Chem. Phys. 121 (2004), 12772 (E).

          Polarizability derivatives, Raman intensities 
          D. Rappoport and F. Furche, 
          J. Chem. Phys. 126 (2007), 201104.

          First-order nonadiabatic couplings 
          R. Send and F. Furche, 
          J. Chem. Phys. 132 (2010), 044107.
                                     




              +--------------------------------------------------+
              | Atomic coordinate, charge and isotop information |
              +--------------------------------------------------+

                    atomic coordinates            atom    charge  isotop
         -0.26221021    0.10671050    0.04764697    ti    22.000     0
          0.59984308   -2.56078575    1.97098490    o      8.000     0
         -2.36202994   -1.71825377   -2.08041404    o      8.000     0
         -2.56233463   -3.53579939   -1.97948579    h      1.000     0
         -0.12497591    3.06060111    1.72252611    o      8.000     0
         -0.06162405    4.82834032    2.07418119    h      1.000     0
          2.57638382    0.93270235   -1.77182030    o      8.000     0
          3.47360262   -0.34308027   -2.71434138    h      1.000     0
          0.67097996   -1.48502252    2.87480120    h      1.000     0
 
       center of nuclear mass  :   -0.00000002   -0.00000002    0.00000001
       center of nuclear charge:    0.02182358   -0.00816930    0.00057934

              +--------------------------------------------------+
              |               basis set information              |
              +--------------------------------------------------+

              we will work with the 1s 3p 5d 7f 9g ... basis set
              ...i.e. with spherical basis functions...

   type   atoms  prim   cont   basis
   ---------------------------------------------------------------------------
    ti       1     73     31   def2-SVP   [5s3p2d1f|14s9p5d1f]
    o        4     24     14   def2-SVP   [3s2p1d|7s4p1d]
    h        4      7      5   def2-SVP   [2s1p|4s1p]
   ---------------------------------------------------------------------------
   total:    9    197    107
   ---------------------------------------------------------------------------

   total number of primitive shells          :   46
   total number of contracted shells         :   47
   total number of cartesian basis functions :  116
   total number of SCF-basis functions       :  107


 residuum convergence criterium   :  0.10E-04


 integral neglect threshold       :  0.29E-10
 integral storage threshold THIZE :  0.10E-04
 integral storage threshold THIME :         5

 
             FOUND RI-J FLAG !
 
  
 AUXILIARY BASIS SET information:

              we will work with the 1s 3p 5d 7f 9g ... basis set
              ...i.e. with spherical basis functions...

   type   atoms  prim   cont   basis
   ---------------------------------------------------------------------------
    ti       1    107     89   def2-SVP   [8s5p5d2f3g|19s5p5d3f3g]
    o        4     70     49   def2-SVP   [6s4p3d1f1g|12s5p4d2f1g]
    h        4     16     11   def2-SVP   [3s1p1d|5s2p1d]
   ---------------------------------------------------------------------------
   total:    9    451    329
   ---------------------------------------------------------------------------

   total number of primitive shells          :   67
   total number of contracted shells         :  103
   total number of cartesian basis functions :  410
   total number of SCF-basis functions       :  329

 RPA SINGLET-EXCITATION-CALCULATION 
 
             FOUND DFT-FLAG !
 
 
 FOUND Nonadiabatic Coupling-FLAG !
 Note: the sign convention for NACME changed
 such that <0|d/dx|n> is now computed.

 symmetry group of the molecule :   c1 

 the group has the following generators :
   c1(z)

    1 symmetry operations found

 there are 1 real representations :   a   

 maximum number of shells which are related by symmetry :  1

 IRREP of excited state :   a   
 

 determining totally symmetric integral contributions 
    - equivalent to irreducible tensor elements - 
 which can be formed within each triple of representations :

             representation triple      contributions

              a     a     a               1

    mo occupation :
   irrep   mo's   occupied
    a      107       29
 
 number of basis functions   :          107
 number of occupied orbitals :           29
 
  
           ------------------
           density functional
           ------------------
 PBE0 hybrid functional
 exchange:    3/4 (LDA+PBE) + 1/4 HF
 correlation: LDA (PW) + PBE
 iterations will be done with small grid
  
 spherical integration : Lebedev's spherical grid
 spherical gridsize    :           3
    i.e. gridpoints    :         302
 value for diffuse not defined
 radial integration    : Chebyshev 2nd kind (scaling 3)
 radial gridsize       :           3
 integration cells     :           9
 partition function    : becke
 partition sharpness   :           3
  
 
 Derivatives of quadrature weights will be included
 
  
           ----------------------
               RI - INFORMATION
           ----------------------

 biggest AO integral is expected to be    13.493451081

 Threshold for integral neglect (rithr2):   0.29E-10
 Threshold for integral neglect (rithr1):   0.29E-10

 Contributions to RI integral batches: 
  neglected integral batches:          56
  direct contribution:                  0
  memory contribution:        1072
 Core memory available (ricore)            500 MiB
 Core memory needed for (P|Q) and Cholesky 1 MiB
 Core memory used for integrals            21 MiB
  
 ****************************************
 Memory allocated for RIDFT 22 MiB
 ****************************************
                                            
  MOs are in ASCII format !


 reading orbital data $scfmo  from file mos
 orbital characterization : scfconv=7
 preparing numerical integration ....
          Overall gridpoints after grid construction =         13485
 Ordering of quadrature gridpoints disabled.

 Calculating ground state density on molecular grid

 Integral of ground state density: N =   58.00112276765130    



 number of non-frozen orbitals          :   107
 number of non-frozen occupied orbitals :    29



                        -------------------
                         excitation vector 
                        -------------------


 dimension of super-tensorspace: 2

          IRREP   tensor space dimension   number of roots

           a              2262                   1

 maximum number of Davidson iterations set to   25


 machine precision: 2.22D-16


 logfile sing_a    exists already

 found      1 converged vectors on sing_a   
 read       1 vectors from logfile sing_a   



                       Nonorthonormal Krylov Space Iteration


 total number of roots to be determined:   1


 maximum core memory set to   500 MB,
 corresponding to     2317 vectors in CAO basis


 maximum number of simultaneously treated vectors (including degeneracy):        1


 Iteration IRREP Converged      Max. Euclidean
                 roots          residual norm

    1       a        0        4.270200798365646D-02
 
    2       a        0        2.418456224431966D-02
 
    3       a        0        1.115392536343272D-02
 
    4       a        0        5.727849431827735D-03
 
    5       a        0        3.568686183583527D-03
 
    6       a        0        2.750225880830866D-03
 
    7       a        0        2.200364217886357D-03
 
    8       a        0        2.570435817430158D-03
 
    9       a        0        3.112333599692238D-03
 
   10       a        0        3.906877110628167D-03
 
   11       a        0        4.429737445632147D-03
 
   12       a        0        6.504735326056128D-03
 
   13       a        0        5.461913037255049D-03
 
   14       a        0        3.667173150925973D-03
 
   15       a        0        2.535967324951918D-03
 
   16       a        0        1.183629823295175D-03
 
   17       a        0        6.395768134806335D-04
 
   18       a        0        4.058484788907883D-04
 
   19       a        0        3.074394509642073D-04
 
   20       a        0        2.270712459450043D-04
 
   21       a        0        1.361258116128042D-04
 
   22       a        0        7.505396218993511D-05
 
   23       a        0        3.482884768656681D-05
 
   24       a        0        1.855248119584679D-05
 
   25       a        0        1.214498241859828D-05
 


 Warning! No convergence within  25 iterations.
 Unless you have specified a very low $escfiterlimit/$forceiterlimit, 
 this is a reason to worry!



 IRREP   Vector     Eigenvalue           Euclidean residual norm

  a         1    1.835894013664443D-01    1.214498241859828D-05
 

 Deallocation failure for file unit arrays in <egrad>


========================
 internal module stack: 
------------------------
    egrad
========================

  abnormal termination
 egrad ended abnormally
error in gradient step (1)
